s 2.000000000 _0_ AGT  --- 0 tcp 40 [0 0 0 0] ------- [0:0 7:0 32 0] [0 0] 0 0
r 2.000000000 _0_ RTR  --- 0 tcp 40 [0 0 0 0] ------- [0:0 7:0 32 0] [0 0] 0 0
s 2.000000000 _0_ AGT  --- 1 tcp 40 [0 0 0 0] ------- [0:1 8:0 32 0] [0 0] 0 0
r 2.000000000 _0_ RTR  --- 1 tcp 40 [0 0 0 0] ------- [0:1 8:0 32 0] [0 0] 0 0
s 2.000000000 _3_ AGT  --- 2 tcp 40 [0 0 0 0] ------- [3:0 7:1 32 0] [0 0] 0 0
r 2.000000000 _3_ RTR  --- 2 tcp 40 [0 0 0 0] ------- [3:0 7:1 32 0] [0 0] 0 0
s 2.000000000 _3_ AGT  --- 3 tcp 40 [0 0 0 0] ------- [3:1 8:1 32 0] [0 0] 0 0
r 2.000000000 _3_ RTR  --- 3 tcp 40 [0 0 0 0] ------- [3:1 8:1 32 0] [0 0] 0 0
s 2.000000000 _0_ RTR  --- 0 AODV 48 [0 0 0 0] ------- [0:255 -1:255 30 0] [0x2 1 1 [7 0] [0 4]] (REQUEST)
s 2.000000000 _0_ RTR  --- 0 AODV 48 [0 0 0 0] ------- [0:255 -1:255 30 0] [0x2 1 2 [8 0] [0 6]] (REQUEST)
s 2.000000000 _3_ RTR  --- 0 AODV 48 [0 0 0 0] ------- [3:255 -1:255 30 0] [0x2 1 1 [7 0] [3 4]] (REQUEST)
s 2.000000000 _3_ RTR  --- 0 AODV 48 [0 0 0 0] ------- [3:255 -1:255 30 0] [0x2 1 2 [8 0] [3 6]] (REQUEST)
r 2.000730079 _4_ RTR  --- 0 AODV 48 [0 ffffffff 3 800] ------- [3:255 -1:255 30 0] [0x2 1 1 [7 0] [3 4]] (REQUEST)
r 2.000730119 _1_ RTR  --- 0 AODV 48 [0 ffffffff 3 800] ------- [3:255 -1:255 30 0] [0x2 1 1 [7 0] [3 4]] (REQUEST)
r 2.001609412 _4_ RTR  --- 0 AODV 48 [0 ffffffff 3 800] ------- [3:255 -1:255 30 0] [0x2 1 2 [8 0] [3 6]] (REQUEST)
r 2.001609453 _1_ RTR  --- 0 AODV 48 [0 ffffffff 3 800] ------- [3:255 -1:255 30 0] [0x2 1 2 [8 0] [3 6]] (REQUEST)
s 2.002037398 _1_ RTR  --- 0 AODV 48 [0 ffffffff 3 800] ------- [1:255 -1:255 29 0] [0x2 2 2 [8 0] [3 6]] (REQUEST)
r 2.002927518 _0_ RTR  --- 0 AODV 48 [0 ffffffff 1 800] ------- [1:255 -1:255 29 0] [0x2 2 2 [8 0] [3 6]] (REQUEST)
r 2.002927518 _3_ RTR  --- 0 AODV 48 [0 ffffffff 1 800] ------- [1:255 -1:255 29 0] [0x2 2 2 [8 0] [3 6]] (REQUEST)
s 2.003076096 _4_ RTR  --- 0 AODV 48 [0 ffffffff 3 800] ------- [4:255 -1:255 29 0] [0x2 2 1 [7 0] [3 4]] (REQUEST)
s 2.003250866 _4_ RTR  --- 0 AODV 48 [0 ffffffff 3 800] ------- [4:255 -1:255 29 0] [0x2 2 2 [8 0] [3 6]] (REQUEST)
r 2.003667597 _2_ RTR  --- 0 AODV 48 [0 ffffffff 0 800] ------- [0:255 -1:255 30 0] [0x2 1 1 [7 0] [0 4]] (REQUEST)
r 2.003667637 _1_ RTR  --- 0 AODV 48 [0 ffffffff 0 800] ------- [0:255 -1:255 30 0] [0x2 1 1 [7 0] [0 4]] (REQUEST)
r 2.004666930 _2_ RTR  --- 0 AODV 48 [0 ffffffff 0 800] ------- [0:255 -1:255 30 0] [0x2 1 2 [8 0] [0 6]] (REQUEST)
r 2.004666971 _1_ RTR  --- 0 AODV 48 [0 ffffffff 0 800] ------- [0:255 -1:255 30 0] [0x2 1 2 [8 0] [0 6]] (REQUEST)
r 2.006051295 _5_ RTR  --- 0 AODV 48 [0 ffffffff 4 800] ------- [4:255 -1:255 29 0] [0x2 2 1 [7 0] [3 4]] (REQUEST)
r 2.006051386 _2_ RTR  --- 0 AODV 48 [0 ffffffff 4 800] ------- [4:255 -1:255 29 0] [0x2 2 1 [7 0] [3 4]] (REQUEST)
r 2.006051465 _3_ RTR  --- 0 AODV 48 [0 ffffffff 4 800] ------- [4:255 -1:255 29 0] [0x2 2 1 [7 0] [3 4]] (REQUEST)
s 2.006248517 _1_ RTR  --- 0 AODV 48 [0 ffffffff 0 800] ------- [1:255 -1:255 29 0] [0x2 2 1 [7 0] [0 4]] (REQUEST)
s 2.007118771 _1_ RTR  --- 0 AODV 48 [0 ffffffff 3 800] ------- [1:255 -1:255 29 0] [0x2 2 1 [7 0] [3 4]] (REQUEST)
r 2.007130629 _5_ RTR  --- 0 AODV 48 [0 ffffffff 4 800] ------- [4:255 -1:255 29 0] [0x2 2 2 [8 0] [3 6]] (REQUEST)
r 2.007130720 _2_ RTR  --- 0 AODV 48 [0 ffffffff 4 800] ------- [4:255 -1:255 29 0] [0x2 2 2 [8 0] [3 6]] (REQUEST)
r 2.007130798 _3_ RTR  --- 0 AODV 48 [0 ffffffff 4 800] ------- [4:255 -1:255 29 0] [0x2 2 2 [8 0] [3 6]] (REQUEST)
s 2.007155007 _2_ RTR  --- 0 AODV 48 [0 ffffffff 0 800] ------- [2:255 -1:255 29 0] [0x2 2 1 [7 0] [0 4]] (REQUEST)
s 2.007164085 _0_ RTR  --- 0 AODV 48 [0 ffffffff 1 800] ------- [0:255 -1:255 28 0] [0x2 3 2 [8 0] [3 6]] (REQUEST)
r 2.008164953 _6_ RTR  --- 0 AODV 48 [0 ffffffff 2 800] ------- [2:255 -1:255 29 0] [0x2 2 1 [7 0] [0 4]] (REQUEST)
r 2.008165007 _4_ RTR  --- 0 AODV 48 [0 ffffffff 2 800] ------- [2:255 -1:255 29 0] [0x2 2 1 [7 0] [0 4]] (REQUEST)
r 2.008165086 _0_ RTR  --- 0 AODV 48 [0 ffffffff 2 800] ------- [2:255 -1:255 29 0] [0x2 2 1 [7 0] [0 4]] (REQUEST)
s 2.008222890 _5_ RTR  --- 0 AODV 48 [0 ffffffff 4 800] ------- [5:255 -1:255 28 0] [0x2 3 1 [7 0] [3 4]] (REQUEST)
s 2.008463643 _2_ RTR  --- 0 AODV 48 [0 ffffffff 4 800] ------- [2:255 -1:255 28 0] [0x2 3 1 [7 0] [3 4]] (REQUEST)
r 2.009045164 _2_ RTR  --- 0 AODV 48 [0 ffffffff 0 800] ------- [0:255 -1:255 28 0] [0x2 3 2 [8 0] [3 6]] (REQUEST)
r 2.009045205 _1_ RTR  --- 0 AODV 48 [0 ffffffff 0 800] ------- [0:255 -1:255 28 0] [0x2 3 2 [8 0] [3 6]] (REQUEST)
s 2.009328089 _2_ RTR  --- 0 AODV 48 [0 ffffffff 0 800] ------- [2:255 -1:255 29 0] [0x2 2 2 [8 0] [0 6]] (REQUEST)
r 2.009745325 _0_ RTR  --- 0 AODV 48 [0 ffffffff 1 800] ------- [1:255 -1:255 29 0] [0x2 2 1 [7 0] [0 4]] (REQUEST)
r 2.009745325 _3_ RTR  --- 0 AODV 48 [0 ffffffff 1 800] ------- [1:255 -1:255 29 0] [0x2 2 1 [7 0] [0 4]] (REQUEST)
r 2.010924658 _0_ RTR  --- 0 AODV 48 [0 ffffffff 1 800] ------- [1:255 -1:255 29 0] [0x2 2 1 [7 0] [3 4]] (REQUEST)
r 2.010924658 _3_ RTR  --- 0 AODV 48 [0 ffffffff 1 800] ------- [1:255 -1:255 29 0] [0x2 2 1 [7 0] [3 4]] (REQUEST)
s 2.010976359 _3_ RTR  --- 0 AODV 48 [0 ffffffff 1 800] ------- [3:255 -1:255 28 0] [0x2 3 1 [7 0] [0 4]] (REQUEST)
s 2.011185911 _2_ RTR  --- 0 AODV 48 [0 ffffffff 4 800] ------- [2:255 -1:255 28 0] [0x2 3 2 [8 0] [3 6]] (REQUEST)
s 2.011590039 _1_ RTR  --- 0 AODV 48 [0 ffffffff 0 800] ------- [1:255 -1:255 29 0] [0x2 2 2 [8 0] [0 6]] (REQUEST)
r 2.011706438 _4_ RTR  --- 0 AODV 48 [0 ffffffff 3 800] ------- [3:255 -1:255 28 0] [0x2 3 1 [7 0] [0 4]] (REQUEST)
r 2.011706479 _1_ RTR  --- 0 AODV 48 [0 ffffffff 3 800] ------- [3:255 -1:255 28 0] [0x2 3 1 [7 0] [0 4]] (REQUEST)
r 2.012566598 _0_ RTR  --- 0 AODV 48 [0 ffffffff 1 800] ------- [1:255 -1:255 29 0] [0x2 2 2 [8 0] [0 6]] (REQUEST)
r 2.012566598 _3_ RTR  --- 0 AODV 48 [0 ffffffff 1 800] ------- [1:255 -1:255 29 0] [0x2 2 2 [8 0] [0 6]] (REQUEST)
s 2.012842173 _3_ RTR  --- 0 AODV 48 [0 ffffffff 1 800] ------- [3:255 -1:255 28 0] [0x2 3 2 [8 0] [0 6]] (REQUEST)
r 2.013790892 _6_ RTR  --- 0 AODV 48 [0 ffffffff 2 800] ------- [2:255 -1:255 28 0] [0x2 3 1 [7 0] [3 4]] (REQUEST)
r 2.013790946 _4_ RTR  --- 0 AODV 48 [0 ffffffff 2 800] ------- [2:255 -1:255 28 0] [0x2 3 1 [7 0] [3 4]] (REQUEST)
r 2.013791024 _0_ RTR  --- 0 AODV 48 [0 ffffffff 2 800] ------- [2:255 -1:255 28 0] [0x2 3 1 [7 0] [3 4]] (REQUEST)
r 2.014710225 _6_ RTR  --- 0 AODV 48 [0 ffffffff 2 800] ------- [2:255 -1:255 28 0] [0x2 3 2 [8 0] [3 6]] (REQUEST)
r 2.014710279 _4_ RTR  --- 0 AODV 48 [0 ffffffff 2 800] ------- [2:255 -1:255 28 0] [0x2 3 2 [8 0] [3 6]] (REQUEST)
r 2.014710358 _0_ RTR  --- 0 AODV 48 [0 ffffffff 2 800] ------- [2:255 -1:255 28 0] [0x2 3 2 [8 0] [3 6]] (REQUEST)
r 2.015409559 _6_ RTR  --- 0 AODV 48 [0 ffffffff 2 800] ------- [2:255 -1:255 29 0] [0x2 2 2 [8 0] [0 6]] (REQUEST)
r 2.015409612 _4_ RTR  --- 0 AODV 48 [0 ffffffff 2 800] ------- [2:255 -1:255 29 0] [0x2 2 2 [8 0] [0 6]] (REQUEST)
r 2.015409691 _0_ RTR  --- 0 AODV 48 [0 ffffffff 2 800] ------- [2:255 -1:255 29 0] [0x2 2 2 [8 0] [0 6]] (REQUEST)
s 2.016180083 _5_ RTR  --- 0 AODV 48 [0 ffffffff 4 800] ------- [5:255 -1:255 28 0] [0x2 3 2 [8 0] [3 6]] (REQUEST)
s 2.016323128 _6_ RTR  --- 0 AODV 48 [0 ffffffff 2 800] ------- [6:255 -1:255 28 0] [0x2 3 2 [8 0] [0 6]] (REQUEST)
r 2.016554226 _4_ RTR  --- 0 AODV 48 [0 ffffffff 3 800] ------- [3:255 -1:255 28 0] [0x2 3 2 [8 0] [0 6]] (REQUEST)
r 2.016554267 _1_ RTR  --- 0 AODV 48 [0 ffffffff 3 800] ------- [3:255 -1:255 28 0] [0x2 3 2 [8 0] [0 6]] (REQUEST)
s 2.017078485 _4_ RTR  --- 0 AODV 48 [0 ffffffff 2 800] ------- [4:255 -1:255 28 0] [0x2 3 1 [7 0] [0 4]] (REQUEST)
s 2.017627603 _6_ RTR  --- 0 AODV 48 [0 ffffffff 2 800] ------- [6:255 -1:255 28 0] [0x2 3 1 [7 0] [0 4]] (REQUEST)
r 2.017719167 _7_ RTR  --- 0 AODV 48 [0 ffffffff 6 800] ------- [6:255 -1:255 28 0] [0x2 3 2 [8 0] [0 6]] (REQUEST)
r 2.017719171 _2_ RTR  --- 0 AODV 48 [0 ffffffff 6 800] ------- [6:255 -1:255 28 0] [0x2 3 2 [8 0] [0 6]] (REQUEST)
s 2.017911390 _0_ RTR  --- 0 AODV 48 [0 ffffffff 1 800] ------- [0:255 -1:255 28 0] [0x2 3 1 [7 0] [3 4]] (REQUEST)
r 2.018658500 _7_ RTR  --- 0 AODV 48 [0 ffffffff 6 800] ------- [6:255 -1:255 28 0] [0x2 3 1 [7 0] [0 4]] (REQUEST)
s 2.018658500 _7_ RTR  --- 0 AODV 44 [0 0 0 0] ------- [7:255 0:255 30 6] [0x4 1 [7 4] 10.000000] (REPLY)
r 2.018658505 _2_ RTR  --- 0 AODV 48 [0 ffffffff 6 800] ------- [6:255 -1:255 28 0] [0x2 3 1 [7 0] [0 4]] (REQUEST)
s 2.020326829 _4_ RTR  --- 0 AODV 48 [0 ffffffff 2 800] ------- [4:255 -1:255 28 0] [0x2 3 2 [8 0] [0 6]] (REQUEST)
r 2.020486329 _4_ RTR  --- 0 AODV 48 [0 ffffffff 5 800] ------- [5:255 -1:255 28 0] [0x2 3 1 [7 0] [3 4]] (REQUEST)
r 2.020486397 _8_ RTR  --- 0 AODV 48 [0 ffffffff 5 800] ------- [5:255 -1:255 28 0] [0x2 3 1 [7 0] [3 4]] (REQUEST)
r 2.020487120 _1_ RTR  --- 0 AODV 48 [0 ffffffff 0 800] ------- [0:255 -1:255 28 0] [0x2 3 1 [7 0] [3 4]] (REQUEST)
r 2.021551111 _5_ RTR  --- 0 AODV 48 [0 ffffffff 4 800] ------- [4:255 -1:255 28 0] [0x2 3 1 [7 0] [0 4]] (REQUEST)
r 2.021551202 _2_ RTR  --- 0 AODV 48 [0 ffffffff 4 800] ------- [4:255 -1:255 28 0] [0x2 3 1 [7 0] [0 4]] (REQUEST)
r 2.021551281 _3_ RTR  --- 0 AODV 48 [0 ffffffff 4 800] ------- [4:255 -1:255 28 0] [0x2 3 1 [7 0] [0 4]] (REQUEST)
s 2.021659598 _6_ RTR  --- 0 AODV 48 [0 ffffffff 2 800] ------- [6:255 -1:255 27 0] [0x2 4 2 [8 0] [3 6]] (REQUEST)
r 2.022530444 _5_ RTR  --- 0 AODV 48 [0 ffffffff 4 800] ------- [4:255 -1:255 28 0] [0x2 3 2 [8 0] [0 6]] (REQUEST)
r 2.022530535 _2_ RTR  --- 0 AODV 48 [0 ffffffff 4 800] ------- [4:255 -1:255 28 0] [0x2 3 2 [8 0] [0 6]] (REQUEST)
r 2.022530614 _3_ RTR  --- 0 AODV 48 [0 ffffffff 4 800] ------- [4:255 -1:255 28 0] [0x2 3 2 [8 0] [0 6]] (REQUEST)
s 2.023259054 _6_ RTR  --- 0 AODV 48 [0 ffffffff 2 800] ------- [6:255 -1:255 27 0] [0x2 4 1 [7 0] [3 4]] (REQUEST)
r 2.023350353 _4_ RTR  --- 0 AODV 48 [0 ffffffff 5 800] ------- [5:255 -1:255 28 0] [0x2 3 2 [8 0] [3 6]] (REQUEST)
r 2.023350421 _8_ RTR  --- 0 AODV 48 [0 ffffffff 5 800] ------- [5:255 -1:255 28 0] [0x2 3 2 [8 0] [3 6]] (REQUEST)
s 2.023350421 _8_ RTR  --- 0 AODV 44 [0 0 0 0] ------- [8:255 3:255 30 5] [0x4 1 [8 4] 10.000000] (REPLY)
s 2.023364743 _5_ RTR  --- 0 AODV 48 [0 ffffffff 4 800] ------- [5:255 -1:255 27 0] [0x2 4 2 [8 0] [0 6]] (REQUEST)
r 2.024189686 _4_ RTR  --- 0 AODV 48 [0 ffffffff 5 800] ------- [5:255 -1:255 27 0] [0x2 4 2 [8 0] [0 6]] (REQUEST)
r 2.024189754 _8_ RTR  --- 0 AODV 48 [0 ffffffff 5 800] ------- [5:255 -1:255 27 0] [0x2 4 2 [8 0] [0 6]] (REQUEST)
s 2.024189754 _8_ RTR  --- 0 AODV 44 [0 0 0 0] ------- [8:255 0:255 30 5] [0x4 1 [8 6] 10.000000] (REPLY)
D 2.024189754 _8_ IFQ  ARP 0 AODV 44 [0 0 8 800] ------- [8:255 3:255 30 5] [0x4 1 [8 4] 10.000000] (REPLY)
s 2.025863168 _7_ RTR  --- 0 AODV 48 [0 ffffffff 6 800] ------- [7:255 -1:255 27 0] [0x2 4 2 [8 0] [0 6]] (REQUEST)
s 2.027012341 _5_ RTR  --- 0 AODV 48 [0 ffffffff 4 800] ------- [5:255 -1:255 27 0] [0x2 4 1 [7 0] [0 4]] (REQUEST)
s 2.027121656 _8_ RTR  --- 0 AODV 48 [0 ffffffff 5 800] ------- [8:255 -1:255 27 0] [0x2 4 1 [7 0] [3 4]] (REQUEST)
r 2.028157307 _5_ RTR  --- 0 AODV 48 [0 ffffffff 8 800] ------- [8:255 -1:255 27 0] [0x2 4 1 [7 0] [3 4]] (REQUEST)
r 2.028957215 _4_ RTR  --- 0 AODV 48 [0 ffffffff 5 800] ------- [5:255 -1:255 27 0] [0x2 4 1 [7 0] [0 4]] (REQUEST)
r 2.028957284 _8_ RTR  --- 0 AODV 48 [0 ffffffff 5 800] ------- [5:255 -1:255 27 0] [0x2 4 1 [7 0] [0 4]] (REQUEST)
s 2.029117256 _8_ RTR  --- 0 AODV 48 [0 ffffffff 5 800] ------- [8:255 -1:255 26 0] [0x2 5 1 [7 0] [0 4]] (REQUEST)
r 2.031778503 _5_ RTR  --- 0 AODV 44 [115 5 8 800] ------- [8:255 0:255 30 5] [0x4 1 [8 6] 10.000000] (REPLY)
f 2.031778503 _5_ RTR  --- 0 AODV 44 [115 5 8 800] ------- [8:255 0:255 29 4] [0x4 2 [8 6] 10.000000] (REPLY)
r 2.033748457 _5_ RTR  --- 0 AODV 48 [0 ffffffff 8 800] ------- [8:255 -1:255 26 0] [0x2 5 1 [7 0] [0 4]] (REQUEST)
r 2.036350226 _7_ RTR  --- 0 AODV 48 [0 ffffffff 6 800] ------- [6:255 -1:255 27 0] [0x2 4 1 [7 0] [3 4]] (REQUEST)
s 2.036350226 _7_ RTR  --- 0 AODV 44 [0 0 0 0] ------- [7:255 3:255 30 6] [0x4 1 [7 6] 10.000000] (REPLY)
r 2.036350231 _2_ RTR  --- 0 AODV 48 [0 ffffffff 6 800] ------- [6:255 -1:255 27 0] [0x2 4 1 [7 0] [3 4]] (REQUEST)
r 2.037050168 _6_ RTR  --- 0 AODV 48 [0 ffffffff 7 800] ------- [7:255 -1:255 27 0] [0x2 4 2 [8 0] [0 6]] (REQUEST)
r 2.038250109 _7_ RTR  --- 0 AODV 48 [0 ffffffff 6 800] ------- [6:255 -1:255 27 0] [0x2 4 2 [8 0] [3 6]] (REQUEST)
r 2.038250114 _2_ RTR  --- 0 AODV 48 [0 ffffffff 6 800] ------- [6:255 -1:255 27 0] [0x2 4 2 [8 0] [3 6]] (REQUEST)
r 2.039555267 _6_ RTR  --- 0 AODV 44 [115 6 7 800] ------- [7:255 3:255 30 6] [0x4 1 [7 6] 10.000000] (REPLY)
f 2.039555267 _6_ RTR  --- 0 AODV 44 [115 6 7 800] ------- [7:255 3:255 29 2] [0x4 2 [7 6] 10.000000] (REPLY)
r 2.041830367 _6_ RTR  --- 0 AODV 44 [115 6 7 800] ------- [7:255 0:255 30 6] [0x4 1 [7 4] 10.000000] (REPLY)
s 2.044620904 _7_ RTR  --- 0 AODV 48 [0 ffffffff 6 800] ------- [7:255 -1:255 26 0] [0x2 5 2 [8 0] [3 6]] (REQUEST)
r 2.047495121 _2_ RTR  --- 0 AODV 44 [115 2 6 800] ------- [7:255 3:255 29 2] [0x4 2 [7 6] 10.000000] (REPLY)
f 2.047495121 _2_ RTR  --- 0 AODV 44 [115 2 6 800] ------- [7:255 3:255 28 4] [0x4 3 [7 6] 10.000000] (REPLY)
r 2.051496800 _4_ RTR  --- 0 AODV 44 [115 4 5 800] ------- [8:255 0:255 29 4] [0x4 2 [8 6] 10.000000] (REPLY)
f 2.051496800 _4_ RTR  --- 0 AODV 44 [115 4 5 800] ------- [8:255 0:255 28 2] [0x4 3 [8 6] 10.000000] (REPLY)
r 2.053018800 _2_ RTR  --- 0 AODV 44 [115 2 4 800] ------- [8:255 0:255 28 2] [0x4 3 [8 6] 10.000000] (REPLY)
f 2.053018800 _2_ RTR  --- 0 AODV 44 [115 2 4 800] ------- [8:255 0:255 27 0] [0x4 4 [8 6] 10.000000] (REPLY)
r 2.054720800 _4_ RTR  --- 0 AODV 44 [115 4 2 800] ------- [7:255 3:255 28 4] [0x4 3 [7 6] 10.000000] (REPLY)
f 2.054720800 _4_ RTR  --- 0 AODV 44 [115 4 2 800] ------- [7:255 3:255 27 3] [0x4 4 [7 6] 10.000000] (REPLY)
r 2.059991600 _3_ RTR  --- 0 AODV 44 [115 3 4 800] ------- [7:255 3:255 27 3] [0x4 4 [7 6] 10.000000] (REPLY)
s 2.059991600 _3_ RTR  --- 2 tcp 40 [0 0 0 0] ------- [3:0 7:1 30 4] [0 0] 0 0
r 2.061492503 _4_ RTR  --- 2 tcp 40 [115 4 3 800] ------- [3:0 7:1 30 4] [0 0] 1 0
f 2.061492503 _4_ RTR  --- 2 tcp 40 [115 4 3 800] ------- [3:0 7:1 29 2] [0 0] 1 0
r 2.063413170 _2_ RTR  --- 2 tcp 40 [115 2 4 800] ------- [3:0 7:1 29 2] [0 0] 2 0
f 2.063413170 _2_ RTR  --- 2 tcp 40 [115 2 4 800] ------- [3:0 7:1 28 6] [0 0] 2 0
r 2.066938446 _6_ RTR  --- 2 tcp 40 [115 6 2 800] ------- [3:0 7:1 28 6] [0 0] 3 0
f 2.066938446 _6_ RTR  --- 2 tcp 40 [115 6 2 800] ------- [3:0 7:1 27 7] [0 0] 3 0
r 2.068581295 _0_ RTR  --- 0 AODV 44 [115 0 2 800] ------- [8:255 0:255 27 0] [0x4 4 [8 6] 10.000000] (REPLY)
s 2.068581295 _0_ RTR  --- 1 tcp 40 [0 0 0 0] ------- [0:1 8:0 30 2] [0 0] 0 0
r 2.070342198 _2_ RTR  --- 1 tcp 40 [115 2 0 800] ------- [0:1 8:0 30 2] [0 0] 1 0
f 2.070342198 _2_ RTR  --- 1 tcp 40 [115 2 0 800] ------- [0:1 8:0 29 4] [0 0] 1 0
r 2.071882864 _4_ RTR  --- 1 tcp 40 [115 4 2 800] ------- [0:1 8:0 29 4] [0 0] 2 0
f 2.071882864 _4_ RTR  --- 1 tcp 40 [115 4 2 800] ------- [0:1 8:0 28 5] [0 0] 2 0
r 2.073943257 _5_ RTR  --- 1 tcp 40 [115 5 4 800] ------- [0:1 8:0 28 5] [0 0] 3 0
f 2.073943257 _5_ RTR  --- 1 tcp 40 [115 5 4 800] ------- [0:1 8:0 27 8] [0 0] 3 0
r 2.075443855 _8_ AGT  --- 1 tcp 40 [115 8 5 800] ------- [0:1 8:0 27 8] [0 0] 4 0
s 2.075443855 _8_ AGT  --- 4 ack 40 [0 0 0 0] ------- [8:0 0:1 32 0] [0 0] 0 0
r 2.075443855 _8_ RTR  --- 4 ack 40 [0 0 0 0] ------- [8:0 0:1 32 0] [0 0] 0 0
s 2.075443855 _8_ RTR  --- 4 ack 40 [0 0 0 0] ------- [8:0 0:1 30 5] [0 0] 0 0
r 2.077064453 _5_ RTR  --- 4 ack 40 [115 5 8 800] ------- [8:0 0:1 30 5] [0 0] 1 0
f 2.077064453 _5_ RTR  --- 4 ack 40 [115 5 8 800] ------- [8:0 0:1 29 4] [0 0] 1 0
r 2.078804846 _4_ RTR  --- 4 ack 40 [115 4 5 800] ------- [8:0 0:1 29 4] [0 0] 2 0
f 2.078804846 _4_ RTR  --- 4 ack 40 [115 4 5 800] ------- [8:0 0:1 28 2] [0 0] 2 0
r 2.080645513 _2_ RTR  --- 4 ack 40 [115 2 4 800] ------- [8:0 0:1 28 2] [0 0] 3 0
f 2.080645513 _2_ RTR  --- 4 ack 40 [115 2 4 800] ------- [8:0 0:1 27 0] [0 0] 3 0
r 2.082346416 _0_ AGT  --- 4 ack 40 [115 0 2 800] ------- [8:0 0:1 27 0] [0 0] 4 0
s 2.082346416 _0_ AGT  --- 5 tcp 8232 [0 0 0 0] ------- [0:1 8:0 32 0] [1 0] 0 0
r 2.082346416 _0_ RTR  --- 5 tcp 8232 [0 0 0 0] ------- [0:1 8:0 32 0] [1 0] 0 0
s 2.082346416 _0_ AGT  --- 6 tcp 8232 [0 0 0 0] ------- [0:1 8:0 32 0] [2 0] 0 0
r 2.082346416 _0_ RTR  --- 6 tcp 8232 [0 0 0 0] ------- [0:1 8:0 32 0] [2 0] 0 0
s 2.082346416 _0_ RTR  --- 5 tcp 8232 [0 0 0 0] ------- [0:1 8:0 30 2] [1 0] 0 0
s 2.082346416 _0_ RTR  --- 6 tcp 8232 [0 0 0 0] ------- [0:1 8:0 30 2] [2 0] 0 0
r 2.084252144 _7_ AGT  --- 2 tcp 40 [115 7 6 800] ------- [3:0 7:1 27 7] [0 0] 4 0
s 2.084252144 _7_ AGT  --- 7 ack 40 [0 0 0 0] ------- [7:1 3:0 32 0] [0 0] 0 0
r 2.084252144 _7_ RTR  --- 7 ack 40 [0 0 0 0] ------- [7:1 3:0 32 0] [0 0] 0 0
s 2.084252144 _7_ RTR  --- 7 ack 40 [0 0 0 0] ------- [7:1 3:0 30 6] [0 0] 0 0
r 2.085892636 _6_ RTR  --- 7 ack 40 [115 6 7 800] ------- [7:1 3:0 30 6] [0 0] 1 0
f 2.085892636 _6_ RTR  --- 7 ack 40 [115 6 7 800] ------- [7:1 3:0 29 2] [0 0] 1 0
r 2.087733141 _2_ RTR  --- 7 ack 40 [115 2 6 800] ------- [7:1 3:0 29 2] [0 0] 2 0
f 2.087733141 _2_ RTR  --- 7 ack 40 [115 2 6 800] ------- [7:1 3:0 28 4] [0 0] 2 0
r 2.133132668 _2_ RTR  --- 5 tcp 8232 [115 2 0 800] ------- [0:1 8:0 30 2] [1 0] 1 0
f 2.133132668 _2_ RTR  --- 5 tcp 8232 [115 2 0 800] ------- [0:1 8:0 29 4] [1 0] 1 0
r 2.134713335 _4_ RTR  --- 7 ack 40 [115 4 2 800] ------- [7:1 3:0 28 4] [0 0] 3 0
f 2.134713335 _4_ RTR  --- 7 ack 40 [115 4 2 800] ------- [7:1 3:0 27 3] [0 0] 3 0
r 2.136394238 _3_ AGT  --- 7 ack 40 [115 3 4 800] ------- [7:1 3:0 27 3] [0 0] 4 0
s 2.136394238 _3_ AGT  --- 8 tcp 8232 [0 0 0 0] ------- [3:0 7:1 32 0] [1 0] 0 0
r 2.136394238 _3_ RTR  --- 8 tcp 8232 [0 0 0 0] ------- [3:0 7:1 32 0] [1 0] 0 0
s 2.136394238 _3_ AGT  --- 9 tcp 8232 [0 0 0 0] ------- [3:0 7:1 32 0] [2 0] 0 0
r 2.136394238 _3_ RTR  --- 9 tcp 8232 [0 0 0 0] ------- [3:0 7:1 32 0] [2 0] 0 0
s 2.136394238 _3_ RTR  --- 8 tcp 8232 [0 0 0 0] ------- [3:0 7:1 30 4] [1 0] 0 0
s 2.136394238 _3_ RTR  --- 9 tcp 8232 [0 0 0 0] ------- [3:0 7:1 30 4] [2 0] 0 0
r 2.182085807 _4_ RTR  --- 8 tcp 8232 [115 4 3 800] ------- [3:0 7:1 30 4] [1 0] 1 0
f 2.182085807 _4_ RTR  --- 8 tcp 8232 [115 4 3 800] ------- [3:0 7:1 29 2] [1 0] 1 0
r 2.227318122 _4_ RTR  --- 9 tcp 8232 [115 4 3 800] ------- [3:0 7:1 30 4] [2 0] 1 0
f 2.227318122 _4_ RTR  --- 9 tcp 8232 [115 4 3 800] ------- [3:0 7:1 29 2] [2 0] 1 0
r 2.272549455 _2_ RTR  --- 8 tcp 8232 [115 2 4 800] ------- [3:0 7:1 29 2] [1 0] 2 0
f 2.272549455 _2_ RTR  --- 8 tcp 8232 [115 2 4 800] ------- [3:0 7:1 28 6] [1 0] 2 0
r 2.318020789 _4_ RTR  --- 5 tcp 8232 [115 4 2 800] ------- [0:1 8:0 29 4] [1 0] 2 0
f 2.318020789 _4_ RTR  --- 5 tcp 8232 [115 4 2 800] ------- [0:1 8:0 28 5] [1 0] 2 0
E 2.322346 0 8 TCP TIMEOUT 0 3 2
E 2.322346 0 8 TCP SLOW_START 0 3 1
s 2.322346416 _0_ AGT  --- 10 tcp 8232 [0 0 0 0] ------- [0:1 8:0 32 0] [1 0] 0 0
r 2.322346416 _0_ RTR  --- 10 tcp 8232 [0 0 0 0] ------- [0:1 8:0 32 0] [1 0] 0 0
s 2.322346416 _0_ RTR  --- 10 tcp 8232 [0 0 0 0] ------- [0:1 8:0 30 2] [1 0] 0 0
r 2.364181960 _6_ RTR  --- 8 tcp 8232 [115 6 2 800] ------- [3:0 7:1 28 6] [1 0] 3 0
f 2.364181960 _6_ RTR  --- 8 tcp 8232 [115 6 2 800] ------- [3:0 7:1 27 7] [1 0] 3 0
r 2.409713119 _7_ AGT  --- 8 tcp 8232 [115 7 6 800] ------- [3:0 7:1 27 7] [1 0] 4 0
s 2.409713119 _7_ AGT  --- 11 ack 40 [0 0 0 0] ------- [7:1 3:0 32 0] [1 0] 0 0
r 2.409713119 _7_ RTR  --- 11 ack 40 [0 0 0 0] ------- [7:1 3:0 32 0] [1 0] 0 0
s 2.409713119 _7_ RTR  --- 11 ack 40 [0 0 0 0] ------- [7:1 3:0 30 6] [1 0] 0 0
r 2.411653610 _6_ RTR  --- 11 ack 40 [115 6 7 800] ------- [7:1 3:0 30 6] [1 0] 1 0
f 2.411653610 _6_ RTR  --- 11 ack 40 [115 6 7 800] ------- [7:1 3:0 29 2] [1 0] 1 0
r 2.413394115 _2_ RTR  --- 11 ack 40 [115 2 6 800] ------- [7:1 3:0 29 2] [1 0] 2 0
f 2.413394115 _2_ RTR  --- 11 ack 40 [115 2 6 800] ------- [7:1 3:0 28 4] [1 0] 2 0
r 2.458713642 _2_ RTR  --- 6 tcp 8232 [115 2 0 800] ------- [0:1 8:0 30 2] [2 0] 1 0
f 2.458713642 _2_ RTR  --- 6 tcp 8232 [115 2 0 800] ------- [0:1 8:0 29 4] [2 0] 1 0
r 2.504152766 _2_ RTR  --- 9 tcp 8232 [115 2 4 800] ------- [3:0 7:1 29 2] [2 0] 2 0
f 2.504152766 _2_ RTR  --- 9 tcp 8232 [115 2 4 800] ------- [3:0 7:1 28 6] [2 0] 2 0
E 2.526394 3 7 TCP TIMEOUT 0 3 2
E 2.526394 3 7 TCP SLOW_START 0 3 1
s 2.526394238 _3_ AGT  --- 12 tcp 8232 [0 0 0 0] ------- [3:0 7:1 32 0] [1 0] 0 0
r 2.526394238 _3_ RTR  --- 12 tcp 8232 [0 0 0 0] ------- [3:0 7:1 32 0] [1 0] 0 0
s 2.526394238 _3_ RTR  --- 12 tcp 8232 [0 0 0 0] ------- [3:0 7:1 30 4] [1 0] 0 0
r 2.549364492 _5_ RTR  --- 5 tcp 8232 [115 5 4 800] ------- [0:1 8:0 28 5] [1 0] 3 0
f 2.549364492 _5_ RTR  --- 5 tcp 8232 [115 5 4 800] ------- [0:1 8:0 27 8] [1 0] 3 0
r 2.594615757 _8_ AGT  --- 5 tcp 8232 [115 8 5 800] ------- [0:1 8:0 27 8] [1 0] 4 0
s 2.594615757 _8_ AGT  --- 13 ack 40 [0 0 0 0] ------- [8:0 0:1 32 0] [1 0] 0 0
r 2.594615757 _8_ RTR  --- 13 ack 40 [0 0 0 0] ------- [8:0 0:1 32 0] [1 0] 0 0
s 2.594615757 _8_ RTR  --- 13 ack 40 [0 0 0 0] ------- [8:0 0:1 30 5] [1 0] 0 0
r 2.596136355 _5_ RTR  --- 13 ack 40 [115 5 8 800] ------- [8:0 0:1 30 5] [1 0] 1 0
f 2.596136355 _5_ RTR  --- 13 ack 40 [115 5 8 800] ------- [8:0 0:1 29 4] [1 0] 1 0
r 2.598081975 _4_ RTR  --- 11 ack 40 [115 4 2 800] ------- [7:1 3:0 28 4] [1 0] 3 0
f 2.598081975 _4_ RTR  --- 11 ack 40 [115 4 2 800] ------- [7:1 3:0 27 3] [1 0] 3 0
r 2.643413975 _4_ RTR  --- 6 tcp 8232 [115 4 2 800] ------- [0:1 8:0 29 4] [2 0] 2 0
f 2.643413975 _4_ RTR  --- 6 tcp 8232 [115 4 2 800] ------- [0:1 8:0 28 5] [2 0] 2 0
r 2.697047301 _6_ RTR  --- 9 tcp 8232 [115 6 2 800] ------- [3:0 7:1 28 6] [2 0] 3 0
f 2.697047301 _6_ RTR  --- 9 tcp 8232 [115 6 2 800] ------- [3:0 7:1 27 7] [2 0] 3 0
r 2.742498459 _7_ AGT  --- 9 tcp 8232 [115 7 6 800] ------- [3:0 7:1 27 7] [2 0] 4 0
s 2.742498459 _7_ AGT  --- 14 ack 40 [0 0 0 0] ------- [7:1 3:0 32 0] [2 0] 0 0
r 2.742498459 _7_ RTR  --- 14 ack 40 [0 0 0 0] ------- [7:1 3:0 32 0] [2 0] 0 0
s 2.742498459 _7_ RTR  --- 14 ack 40 [0 0 0 0] ------- [7:1 3:0 30 6] [2 0] 0 0
r 2.744078950 _6_ RTR  --- 14 ack 40 [115 6 7 800] ------- [7:1 3:0 30 6] [2 0] 1 0
f 2.744078950 _6_ RTR  --- 14 ack 40 [115 6 7 800] ------- [7:1 3:0 29 2] [2 0] 1 0
r 2.746099455 _2_ RTR  --- 14 ack 40 [115 2 6 800] ------- [7:1 3:0 29 2] [2 0] 2 0
f 2.746099455 _2_ RTR  --- 14 ack 40 [115 2 6 800] ------- [7:1 3:0 28 4] [2 0] 2 0
r 2.747708142 _3_ AGT  --- 11 ack 40 [115 3 4 800] ------- [7:1 3:0 27 3] [1 0] 4 0
s 2.747708142 _3_ AGT  --- 15 tcp 8232 [0 0 0 0] ------- [3:0 7:1 32 0] [2 0] 0 0
r 2.747708142 _3_ RTR  --- 15 tcp 8232 [0 0 0 0] ------- [3:0 7:1 32 0] [2 0] 0 0
s 2.747708142 _3_ AGT  --- 16 tcp 8232 [0 0 0 0] ------- [3:0 7:1 32 0] [3 0] 0 0
r 2.747708142 _3_ RTR  --- 16 tcp 8232 [0 0 0 0] ------- [3:0 7:1 32 0] [3 0] 0 0
s 2.747708142 _3_ RTR  --- 15 tcp 8232 [0 0 0 0] ------- [3:0 7:1 30 4] [2 0] 0 0
s 2.747708142 _3_ RTR  --- 16 tcp 8232 [0 0 0 0] ------- [3:0 7:1 30 4] [3 0] 0 0
r 2.793305045 _2_ RTR  --- 10 tcp 8232 [115 2 0 800] ------- [0:1 8:0 30 2] [1 0] 1 0
f 2.793305045 _2_ RTR  --- 10 tcp 8232 [115 2 0 800] ------- [0:1 8:0 29 4] [1 0] 1 0
E 2.802346 0 8 TCP TIMEOUT 0 2 1
E 2.802346 0 8 TCP SLOW_START 0 2 1
s 2.802346416 _0_ AGT  --- 17 tcp 8232 [0 0 0 0] ------- [0:1 8:0 32 0] [1 0] 0 0
r 2.802346416 _0_ RTR  --- 17 tcp 8232 [0 0 0 0] ------- [0:1 8:0 32 0] [1 0] 0 0
s 2.802346416 _0_ RTR  --- 17 tcp 8232 [0 0 0 0] ------- [0:1 8:0 30 2] [1 0] 0 0
r 2.838643894 _5_ RTR  --- 6 tcp 8232 [115 5 4 800] ------- [0:1 8:0 28 5] [2 0] 3 0
f 2.838643894 _5_ RTR  --- 6 tcp 8232 [115 5 4 800] ------- [0:1 8:0 27 8] [2 0] 3 0
r 2.841503685 _4_ RTR  --- 14 ack 40 [115 4 2 800] ------- [7:1 3:0 28 4] [2 0] 3 0
f 2.841503685 _4_ RTR  --- 14 ack 40 [115 4 2 800] ------- [7:1 3:0 27 3] [2 0] 3 0
r 2.887155685 _4_ RTR  --- 10 tcp 8232 [115 4 2 800] ------- [0:1 8:0 29 4] [1 0] 2 0
f 2.887155685 _4_ RTR  --- 10 tcp 8232 [115 4 2 800] ------- [0:1 8:0 28 5] [1 0] 2 0
r 2.888756587 _3_ AGT  --- 14 ack 40 [115 3 4 800] ------- [7:1 3:0 27 3] [2 0] 4 0
s 2.888756587 _3_ AGT  --- 18 tcp 8232 [0 0 0 0] ------- [3:0 7:1 32 0] [4 0] 0 0
r 2.888756587 _3_ RTR  --- 18 tcp 8232 [0 0 0 0] ------- [3:0 7:1 32 0] [4 0] 0 0
s 2.888756587 _3_ RTR  --- 18 tcp 8232 [0 0 0 0] ------- [3:0 7:1 30 4] [4 0] 0 0
r 2.934533490 _2_ RTR  --- 17 tcp 8232 [115 2 0 800] ------- [0:1 8:0 30 2] [1 0] 1 0
f 2.934533490 _2_ RTR  --- 17 tcp 8232 [115 2 0 800] ------- [0:1 8:0 29 4] [1 0] 1 0
r 2.979832340 _5_ RTR  --- 10 tcp 8232 [115 5 4 800] ------- [0:1 8:0 28 5] [1 0] 3 0
f 2.979832340 _5_ RTR  --- 10 tcp 8232 [115 5 4 800] ------- [0:1 8:0 27 8] [1 0] 3 0
r 3.025668626 _4_ RTR  --- 17 tcp 8232 [115 4 2 800] ------- [0:1 8:0 29 4] [1 0] 2 0
f 3.025668626 _4_ RTR  --- 17 tcp 8232 [115 4 2 800] ------- [0:1 8:0 28 5] [1 0] 2 0
r 3.070999686 _5_ RTR  --- 17 tcp 8232 [115 5 4 800] ------- [0:1 8:0 28 5] [1 0] 3 0
f 3.070999686 _5_ RTR  --- 17 tcp 8232 [115 5 4 800] ------- [0:1 8:0 27 8] [1 0] 3 0
r 3.075600079 _4_ RTR  --- 13 ack 40 [115 4 5 800] ------- [8:0 0:1 29 4] [1 0] 2 0
f 3.075600079 _4_ RTR  --- 13 ack 40 [115 4 5 800] ------- [8:0 0:1 28 2] [1 0] 2 0
r 3.120871919 _8_ AGT  --- 6 tcp 8232 [115 8 5 800] ------- [0:1 8:0 27 8] [2 0] 4 0
s 3.120871919 _8_ AGT  --- 19 ack 40 [0 0 0 0] ------- [8:0 0:1 32 0] [2 0] 0 0
r 3.120871919 _8_ RTR  --- 19 ack 40 [0 0 0 0] ------- [8:0 0:1 32 0] [2 0] 0 0
s 3.120871919 _8_ RTR  --- 19 ack 40 [0 0 0 0] ------- [8:0 0:1 30 5] [2 0] 0 0
r 3.122372517 _5_ RTR  --- 19 ack 40 [115 5 8 800] ------- [8:0 0:1 30 5] [2 0] 1 0
f 3.122372517 _5_ RTR  --- 19 ack 40 [115 5 8 800] ------- [8:0 0:1 29 4] [2 0] 1 0
r 3.167943782 _8_ AGT  --- 10 tcp 8232 [115 8 5 800] ------- [0:1 8:0 27 8] [1 0] 4 0
s 3.167943782 _8_ AGT  --- 20 ack 40 [0 0 0 0] ------- [8:0 0:1 32 0] [2 0] 0 0
r 3.167943782 _8_ RTR  --- 20 ack 40 [0 0 0 0] ------- [8:0 0:1 32 0] [2 0] 0 0
s 3.167943782 _8_ RTR  --- 20 ack 40 [0 0 0 0] ------- [8:0 0:1 30 5] [2 0] 0 0
r 3.169564380 _5_ RTR  --- 20 ack 40 [115 5 8 800] ------- [8:0 0:1 30 5] [2 0] 1 0
f 3.169564380 _5_ RTR  --- 20 ack 40 [115 5 8 800] ------- [8:0 0:1 29 4] [2 0] 1 0
r 3.171392949 _2_ RTR  --- 13 ack 40 [115 2 4 800] ------- [8:0 0:1 28 2] [1 0] 3 0
f 3.171392949 _2_ RTR  --- 13 ack 40 [115 2 4 800] ------- [8:0 0:1 27 0] [1 0] 3 0
r 3.173153852 _0_ AGT  --- 13 ack 40 [115 0 2 800] ------- [8:0 0:1 27 0] [1 0] 4 0
s 3.173153852 _0_ AGT  --- 21 tcp 8232 [0 0 0 0] ------- [0:1 8:0 32 0] [2 0] 0 0
r 3.173153852 _0_ RTR  --- 21 tcp 8232 [0 0 0 0] ------- [0:1 8:0 32 0] [2 0] 0 0
s 3.173153852 _0_ AGT  --- 22 tcp 8232 [0 0 0 0] ------- [0:1 8:0 32 0] [3 0] 0 0
r 3.173153852 _0_ RTR  --- 22 tcp 8232 [0 0 0 0] ------- [0:1 8:0 32 0] [3 0] 0 0
s 3.173153852 _0_ RTR  --- 21 tcp 8232 [0 0 0 0] ------- [0:1 8:0 30 2] [2 0] 0 0
s 3.173153852 _0_ RTR  --- 22 tcp 8232 [0 0 0 0] ------- [0:1 8:0 30 2] [3 0] 0 0
r 3.218810769 _8_ AGT  --- 17 tcp 8232 [115 8 5 800] ------- [0:1 8:0 27 8] [1 0] 4 0
s 3.218810769 _8_ AGT  --- 23 ack 40 [0 0 0 0] ------- [8:0 0:1 32 0] [2 0] 0 0
r 3.218810769 _8_ RTR  --- 23 ack 40 [0 0 0 0] ------- [8:0 0:1 32 0] [2 0] 0 0
s 3.218810769 _8_ RTR  --- 23 ack 40 [0 0 0 0] ------- [8:0 0:1 30 5] [2 0] 0 0
r 3.220411806 _4_ RTR  --- 19 ack 40 [115 4 5 800] ------- [8:0 0:1 29 4] [2 0] 2 0
f 3.220411806 _4_ RTR  --- 19 ack 40 [115 4 5 800] ------- [8:0 0:1 28 2] [2 0] 2 0
r 3.221952774 _4_ RTR  --- 20 ack 40 [115 4 5 800] ------- [8:0 0:1 29 4] [2 0] 2 0
f 3.221952774 _4_ RTR  --- 20 ack 40 [115 4 5 800] ------- [8:0 0:1 28 2] [2 0] 2 0
r 3.223473441 _2_ RTR  --- 19 ack 40 [115 2 4 800] ------- [8:0 0:1 28 2] [2 0] 3 0
f 3.223473441 _2_ RTR  --- 19 ack 40 [115 2 4 800] ------- [8:0 0:1 27 0] [2 0] 3 0
r 3.225094344 _0_ AGT  --- 19 ack 40 [115 0 2 800] ------- [8:0 0:1 27 0] [2 0] 4 0
s 3.225094344 _0_ AGT  --- 24 tcp 8232 [0 0 0 0] ------- [0:1 8:0 32 0] [4 0] 0 0
r 3.225094344 _0_ RTR  --- 24 tcp 8232 [0 0 0 0] ------- [0:1 8:0 32 0] [4 0] 0 0
s 3.225094344 _0_ RTR  --- 24 tcp 8232 [0 0 0 0] ------- [0:1 8:0 30 2] [4 0] 0 0
r 3.270365913 _2_ RTR  --- 21 tcp 8232 [115 2 0 800] ------- [0:1 8:0 30 2] [2 0] 1 0
f 3.270365913 _2_ RTR  --- 21 tcp 8232 [115 2 0 800] ------- [0:1 8:0 29 4] [2 0] 1 0
r 3.272054369 _2_ RTR  --- 20 ack 40 [115 2 4 800] ------- [8:0 0:1 28 2] [2 0] 3 0
f 3.272054369 _2_ RTR  --- 20 ack 40 [115 2 4 800] ------- [8:0 0:1 27 0] [2 0] 3 0
D 3.278134853 _8_ RTR  CBK 23 ack 40 [115 5 8 800] ------- [8:0 0:1 30 5] [2 0] 0 0
s 3.278134853 _8_ RTR  --- 0 AODV 40 [0 0 0 0] ------- [8:255 -1:255 1 0] [0x8 2 [0 3] 0.000000] (ERROR)
r 3.317373807 _2_ RTR  --- 22 tcp 8232 [115 2 0 800] ------- [0:1 8:0 30 2] [3 0] 1 0
f 3.317373807 _2_ RTR  --- 22 tcp 8232 [115 2 0 800] ------- [0:1 8:0 29 4] [3 0] 1 0
r 3.362665141 _4_ RTR  --- 21 tcp 8232 [115 4 2 800] ------- [0:1 8:0 29 4] [2 0] 2 0
f 3.362665141 _4_ RTR  --- 21 tcp 8232 [115 4 2 800] ------- [0:1 8:0 28 5] [2 0] 2 0
r 3.408196200 _5_ RTR  --- 21 tcp 8232 [115 5 4 800] ------- [0:1 8:0 28 5] [2 0] 3 0
f 3.408196200 _5_ RTR  --- 21 tcp 8232 [115 5 4 800] ------- [0:1 8:0 27 8] [2 0] 3 0
r 3.453707465 _8_ AGT  --- 21 tcp 8232 [115 8 5 800] ------- [0:1 8:0 27 8] [2 0] 4 0
s 3.453707465 _8_ AGT  --- 25 ack 40 [0 0 0 0] ------- [8:0 0:1 32 0] [2 0] 0 0
r 3.453707465 _8_ RTR  --- 25 ack 40 [0 0 0 0] ------- [8:0 0:1 32 0] [2 0] 0 0
s 3.453707465 _8_ RTR  --- 0 AODV 48 [0 0 0 0] ------- [8:255 -1:255 6 0] [0x2 1 1 [0 7] [8 10]] (REQUEST)
r 3.455064109 _5_ RTR  --- 0 AODV 48 [0 ffffffff 8 800] ------- [8:255 -1:255 6 0] [0x2 1 1 [0 7] [8 10]] (REQUEST)
s 3.460839965 _5_ RTR  --- 0 AODV 48 [0 ffffffff 8 800] ------- [5:255 -1:255 5 0] [0x2 2 1 [0 7] [8 10]] (REQUEST)
r 3.500156710 _2_ RTR  --- 24 tcp 8232 [115 2 0 800] ------- [0:1 8:0 30 2] [4 0] 1 0