n -t 0 -s 0 -S DLABEL -l "A" -L ""
n -t 0 -s 1 -S DLABEL -l "B" -L ""
n -t 0 -s 2 -S DLABEL -l "C" -L ""
n -t 0 -s 3 -S DLABEL -l "D" -L ""
n -t 0 -s 4 -S DLABEL -l "E" -L ""
n -t 0 -s 5 -S DLABEL -l "F" -L ""
n -t 0 -s 6 -S DLABEL -l "G" -L ""
n -t 0 -s 7 -S DLABEL -l "H" -L ""
n -t 0 -s 8 -S DLABEL -l "L" -L ""
n -t * -s 0  -x 200 -y 600 -Z 0 -z 20  -v circle -c black
n -t * -s 1  -x 75 -y 400 -Z 0 -z 20  -v circle -c black
n -t * -s 2  -x 400 -y 500 -Z 0 -z 20  -v circle -c black
n -t * -s 3  -x 200 -y 200 -Z 0 -z 20  -v circle -c black
n -t * -s 4  -x 400 -y 300 -Z 0 -z 20  -v circle -c black
n -t * -s 5  -x 570 -y 270 -Z 0 -z 20  -v circle -c black
n -t * -s 6  -x 570 -y 570 -Z 0 -z 20  -v circle -c black
n -t * -s 7  -x 750 -y 600 -Z 0 -z 20  -v circle -c black
n -t * -s 8  -x 750 -y 200 -Z 0 -z 20  -v circle -c black
V -t * -v 1.0a5 -a 0
W -t * -x 800 -y 800
A -t * -n 1 -p 0 -o 0x7fffffff -c 30 -a 1
A -t * -h 1 -m 1073741823 -s 0
+ -t 2.000000000 -s 0 -d -1 -p tcp -e 40 -c 2 -a 0 -i 0 -k AGT 
- -t 2.000000000 -s 0 -d -1 -p tcp -e 40 -c 2 -a 0 -i 0 -k AGT
h -t 2.000000000 -s 0 -d -1 -p tcp -e 40 -c 2 -a 0 -i 0 -k AGT
+ -t 2.000000000 -s 0 -d -1 -p tcp -e 40 -c 2 -a 0 -i 1 -k AGT 
- -t 2.000000000 -s 0 -d -1 -p tcp -e 40 -c 2 -a 0 -i 1 -k AGT
h -t 2.000000000 -s 0 -d -1 -p tcp -e 40 -c 2 -a 0 -i 1 -k AGT
+ -t 2.000000000 -s 3 -d -1 -p tcp -e 40 -c 2 -a 0 -i 2 -k AGT 
- -t 2.000000000 -s 3 -d -1 -p tcp -e 40 -c 2 -a 0 -i 2 -k AGT
h -t 2.000000000 -s 3 -d -1 -p tcp -e 40 -c 2 -a 0 -i 2 -k AGT
+ -t 2.000000000 -s 3 -d -1 -p tcp -e 40 -c 2 -a 0 -i 3 -k AGT 
- -t 2.000000000 -s 3 -d -1 -p tcp -e 40 -c 2 -a 0 -i 3 -k AGT
h -t 2.000000000 -s 3 -d -1 -p tcp -e 40 -c 2 -a 0 -i 3 -k AGT
+ -t 2.000000000 -s 0 -d -1 -p AODV -e 48 -c 2 -a 0 -i 0 -k RTR 
- -t 2.000000000 -s 0 -d -1 -p AODV -e 48 -c 2 -a 0 -i 0 -k RTR
h -t 2.000000000 -s 0 -d -1 -p AODV -e 48 -c 2 -a 0 -i 0 -k RTR
+ -t 2.000000000 -s 0 -d -1 -p AODV -e 48 -c 2 -a 0 -i 0 -k RTR 
- -t 2.000000000 -s 0 -d -1 -p AODV -e 48 -c 2 -a 0 -i 0 -k RTR
h -t 2.000000000 -s 0 -d -1 -p AODV -e 48 -c 2 -a 0 -i 0 -k RTR
+ -t 2.000000000 -s 3 -d -1 -p AODV -e 48 -c 2 -a 0 -i 0 -k RTR 
- -t 2.000000000 -s 3 -d -1 -p AODV -e 48 -c 2 -a 0 -i 0 -k RTR
h -t 2.000000000 -s 3 -d -1 -p AODV -e 48 -c 2 -a 0 -i 0 -k RTR
+ -t 2.000000000 -s 3 -d -1 -p AODV -e 48 -c 2 -a 0 -i 0 -k RTR 
- -t 2.000000000 -s 3 -d -1 -p AODV -e 48 -c 2 -a 0 -i 0 -k RTR
h -t 2.000000000 -s 3 -d -1 -p AODV -e 48 -c 2 -a 0 -i 0 -k RTR
r -t 2.000730079 -s 4 -d -1 -p AODV -e 48 -c 2 -a 0 -i 0 -k RTR
r -t 2.000730119 -s 1 -d -1 -p AODV -e 48 -c 2 -a 0 -i 0 -k RTR
r -t 2.001609412 -s 4 -d -1 -p AODV -e 48 -c 2 -a 0 -i 0 -k RTR
r -t 2.001609453 -s 1 -d -1 -p AODV -e 48 -c 2 -a 0 -i 0 -k RTR
+ -t 2.002037398 -s 1 -d -1 -p AODV -e 48 -c 2 -a 0 -i 0 -k RTR 
- -t 2.002037398 -s 1 -d -1 -p AODV -e 48 -c 2 -a 0 -i 0 -k RTR
h -t 2.002037398 -s 1 -d -1 -p AODV -e 48 -c 2 -a 0 -i 0 -k RTR
r -t 2.002927518 -s 0 -d -1 -p AODV -e 48 -c 2 -a 0 -i 0 -k RTR
r -t 2.002927518 -s 3 -d -1 -p AODV -e 48 -c 2 -a 0 -i 0 -k RTR
+ -t 2.003076096 -s 4 -d -1 -p AODV -e 48 -c 2 -a 0 -i 0 -k RTR 
- -t 2.003076096 -s 4 -d -1 -p AODV -e 48 -c 2 -a 0 -i 0 -k RTR
h -t 2.003076096 -s 4 -d -1 -p AODV -e 48 -c 2 -a 0 -i 0 -k RTR
+ -t 2.003250866 -s 4 -d -1 -p AODV -e 48 -c 2 -a 0 -i 0 -k RTR 
- -t 2.003250866 -s 4 -d -1 -p AODV -e 48 -c 2 -a 0 -i 0 -k RTR
h -t 2.003250866 -s 4 -d -1 -p AODV -e 48 -c 2 -a 0 -i 0 -k RTR
r -t 2.003667597 -s 2 -d -1 -p AODV -e 48 -c 2 -a 0 -i 0 -k RTR
r -t 2.003667637 -s 1 -d -1 -p AODV -e 48 -c 2 -a 0 -i 0 -k RTR
r -t 2.004666930 -s 2 -d -1 -p AODV -e 48 -c 2 -a 0 -i 0 -k RTR
r -t 2.004666971 -s 1 -d -1 -p AODV -e 48 -c 2 -a 0 -i 0 -k RTR
r -t 2.006051295 -s 5 -d -1 -p AODV -e 48 -c 2 -a 0 -i 0 -k RTR
r -t 2.006051386 -s 2 -d -1 -p AODV -e 48 -c 2 -a 0 -i 0 -k RTR
r -t 2.006051465 -s 3 -d -1 -p AODV -e 48 -c 2 -a 0 -i 0 -k RTR
+ -t 2.006248517 -s 1 -d -1 -p AODV -e 48 -c 2 -a 0 -i 0 -k RTR 
- -t 2.006248517 -s 1 -d -1 -p AODV -e 48 -c 2 -a 0 -i 0 -k RTR
h -t 2.006248517 -s 1 -d -1 -p AODV -e 48 -c 2 -a 0 -i 0 -k RTR
+ -t 2.007118771 -s 1 -d -1 -p AODV -e 48 -c 2 -a 0 -i 0 -k RTR 
- -t 2.007118771 -s 1 -d -1 -p AODV -e 48 -c 2 -a 0 -i 0 -k RTR
h -t 2.007118771 -s 1 -d -1 -p AODV -e 48 -c 2 -a 0 -i 0 -k RTR
r -t 2.007130629 -s 5 -d -1 -p AODV -e 48 -c 2 -a 0 -i 0 -k RTR
r -t 2.007130720 -s 2 -d -1 -p AODV -e 48 -c 2 -a 0 -i 0 -k RTR
r -t 2.007130798 -s 3 -d -1 -p AODV -e 48 -c 2 -a 0 -i 0 -k RTR
+ -t 2.007155007 -s 2 -d -1 -p AODV -e 48 -c 2 -a 0 -i 0 -k RTR 
- -t 2.007155007 -s 2 -d -1 -p AODV -e 48 -c 2 -a 0 -i 0 -k RTR
h -t 2.007155007 -s 2 -d -1 -p AODV -e 48 -c 2 -a 0 -i 0 -k RTR
+ -t 2.007164085 -s 0 -d -1 -p AODV -e 48 -c 2 -a 0 -i 0 -k RTR 
- -t 2.007164085 -s 0 -d -1 -p AODV -e 48 -c 2 -a 0 -i 0 -k RTR
h -t 2.007164085 -s 0 -d -1 -p AODV -e 48 -c 2 -a 0 -i 0 -k RTR
r -t 2.008164953 -s 6 -d -1 -p AODV -e 48 -c 2 -a 0 -i 0 -k RTR
r -t 2.008165007 -s 4 -d -1 -p AODV -e 48 -c 2 -a 0 -i 0 -k RTR
r -t 2.008165086 -s 0 -d -1 -p AODV -e 48 -c 2 -a 0 -i 0 -k RTR
+ -t 2.008222890 -s 5 -d -1 -p AODV -e 48 -c 2 -a 0 -i 0 -k RTR 
- -t 2.008222890 -s 5 -d -1 -p AODV -e 48 -c 2 -a 0 -i 0 -k RTR
h -t 2.008222890 -s 5 -d -1 -p AODV -e 48 -c 2 -a 0 -i 0 -k RTR
+ -t 2.008463643 -s 2 -d -1 -p AODV -e 48 -c 2 -a 0 -i 0 -k RTR 
- -t 2.008463643 -s 2 -d -1 -p AODV -e 48 -c 2 -a 0 -i 0 -k RTR
h -t 2.008463643 -s 2 -d -1 -p AODV -e 48 -c 2 -a 0 -i 0 -k RTR
r -t 2.009045164 -s 2 -d -1 -p AODV -e 48 -c 2 -a 0 -i 0 -k RTR
r -t 2.009045205 -s 1 -d -1 -p AODV -e 48 -c 2 -a 0 -i 0 -k RTR
+ -t 2.009328089 -s 2 -d -1 -p AODV -e 48 -c 2 -a 0 -i 0 -k RTR 
- -t 2.009328089 -s 2 -d -1 -p AODV -e 48 -c 2 -a 0 -i 0 -k RTR
h -t 2.009328089 -s 2 -d -1 -p AODV -e 48 -c 2 -a 0 -i 0 -k RTR
r -t 2.009745325 -s 0 -d -1 -p AODV -e 48 -c 2 -a 0 -i 0 -k RTR
r -t 2.009745325 -s 3 -d -1 -p AODV -e 48 -c 2 -a 0 -i 0 -k RTR
r -t 2.010924658 -s 0 -d -1 -p AODV -e 48 -c 2 -a 0 -i 0 -k RTR
r -t 2.010924658 -s 3 -d -1 -p AODV -e 48 -c 2 -a 0 -i 0 -k RTR
+ -t 2.010976359 -s 3 -d -1 -p AODV -e 48 -c 2 -a 0 -i 0 -k RTR 
- -t 2.010976359 -s 3 -d -1 -p AODV -e 48 -c 2 -a 0 -i 0 -k RTR
h -t 2.010976359 -s 3 -d -1 -p AODV -e 48 -c 2 -a 0 -i 0 -k RTR
+ -t 2.011185911 -s 2 -d -1 -p AODV -e 48 -c 2 -a 0 -i 0 -k RTR 
- -t 2.011185911 -s 2 -d -1 -p AODV -e 48 -c 2 -a 0 -i 0 -k RTR
h -t 2.011185911 -s 2 -d -1 -p AODV -e 48 -c 2 -a 0 -i 0 -k RTR
+ -t 2.011590039 -s 1 -d -1 -p AODV -e 48 -c 2 -a 0 -i 0 -k RTR 
- -t 2.011590039 -s 1 -d -1 -p AODV -e 48 -c 2 -a 0 -i 0 -k RTR
h -t 2.011590039 -s 1 -d -1 -p AODV -e 48 -c 2 -a 0 -i 0 -k RTR
r -t 2.011706438 -s 4 -d -1 -p AODV -e 48 -c 2 -a 0 -i 0 -k RTR
r -t 2.011706479 -s 1 -d -1 -p AODV -e 48 -c 2 -a 0 -i 0 -k RTR
r -t 2.012566598 -s 0 -d -1 -p AODV -e 48 -c 2 -a 0 -i 0 -k RTR
r -t 2.012566598 -s 3 -d -1 -p AODV -e 48 -c 2 -a 0 -i 0 -k RTR
+ -t 2.012842173 -s 3 -d -1 -p AODV -e 48 -c 2 -a 0 -i 0 -k RTR 
- -t 2.012842173 -s 3 -d -1 -p AODV -e 48 -c 2 -a 0 -i 0 -k RTR
h -t 2.012842173 -s 3 -d -1 -p AODV -e 48 -c 2 -a 0 -i 0 -k RTR
r -t 2.013790892 -s 6 -d -1 -p AODV -e 48 -c 2 -a 0 -i 0 -k RTR
r -t 2.013790946 -s 4 -d -1 -p AODV -e 48 -c 2 -a 0 -i 0 -k RTR
r -t 2.013791024 -s 0 -d -1 -p AODV -e 48 -c 2 -a 0 -i 0 -k RTR
r -t 2.014710225 -s 6 -d -1 -p AODV -e 48 -c 2 -a 0 -i 0 -k RTR
r -t 2.014710279 -s 4 -d -1 -p AODV -e 48 -c 2 -a 0 -i 0 -k RTR
r -t 2.014710358 -s 0 -d -1 -p AODV -e 48 -c 2 -a 0 -i 0 -k RTR
r -t 2.015409559 -s 6 -d -1 -p AODV -e 48 -c 2 -a 0 -i 0 -k RTR
r -t 2.015409612 -s 4 -d -1 -p AODV -e 48 -c 2 -a 0 -i 0 -k RTR
r -t 2.015409691 -s 0 -d -1 -p AODV -e 48 -c 2 -a 0 -i 0 -k RTR
+ -t 2.016180083 -s 5 -d -1 -p AODV -e 48 -c 2 -a 0 -i 0 -k RTR 
- -t 2.016180083 -s 5 -d -1 -p AODV -e 48 -c 2 -a 0 -i 0 -k RTR
h -t 2.016180083 -s 5 -d -1 -p AODV -e 48 -c 2 -a 0 -i 0 -k RTR
+ -t 2.016323128 -s 6 -d -1 -p AODV -e 48 -c 2 -a 0 -i 0 -k RTR 
- -t 2.016323128 -s 6 -d -1 -p AODV -e 48 -c 2 -a 0 -i 0 -k RTR
h -t 2.016323128 -s 6 -d -1 -p AODV -e 48 -c 2 -a 0 -i 0 -k RTR
r -t 2.016554226 -s 4 -d -1 -p AODV -e 48 -c 2 -a 0 -i 0 -k RTR
r -t 2.016554267 -s 1 -d -1 -p AODV -e 48 -c 2 -a 0 -i 0 -k RTR
+ -t 2.017078485 -s 4 -d -1 -p AODV -e 48 -c 2 -a 0 -i 0 -k RTR 
- -t 2.017078485 -s 4 -d -1 -p AODV -e 48 -c 2 -a 0 -i 0 -k RTR
h -t 2.017078485 -s 4 -d -1 -p AODV -e 48 -c 2 -a 0 -i 0 -k RTR
+ -t 2.017627603 -s 6 -d -1 -p AODV -e 48 -c 2 -a 0 -i 0 -k RTR 
- -t 2.017627603 -s 6 -d -1 -p AODV -e 48 -c 2 -a 0 -i 0 -k RTR
h -t 2.017627603 -s 6 -d -1 -p AODV -e 48 -c 2 -a 0 -i 0 -k RTR
r -t 2.017719167 -s 7 -d -1 -p AODV -e 48 -c 2 -a 0 -i 0 -k RTR
r -t 2.017719171 -s 2 -d -1 -p AODV -e 48 -c 2 -a 0 -i 0 -k RTR
+ -t 2.017911390 -s 0 -d -1 -p AODV -e 48 -c 2 -a 0 -i 0 -k RTR 
- -t 2.017911390 -s 0 -d -1 -p AODV -e 48 -c 2 -a 0 -i 0 -k RTR
h -t 2.017911390 -s 0 -d -1 -p AODV -e 48 -c 2 -a 0 -i 0 -k RTR
r -t 2.018658500 -s 7 -d -1 -p AODV -e 48 -c 2 -a 0 -i 0 -k RTR
+ -t 2.018658500 -s 7 -d 6 -p AODV -e 44 -c 2 -a 0 -i 0 -k RTR 
- -t 2.018658500 -s 7 -d 6 -p AODV -e 44 -c 2 -a 0 -i 0 -k RTR
h -t 2.018658500 -s 7 -d 6 -p AODV -e 44 -c 2 -a 0 -i 0 -k RTR
r -t 2.018658505 -s 2 -d -1 -p AODV -e 48 -c 2 -a 0 -i 0 -k RTR
+ -t 2.020326829 -s 4 -d -1 -p AODV -e 48 -c 2 -a 0 -i 0 -k RTR 
- -t 2.020326829 -s 4 -d -1 -p AODV -e 48 -c 2 -a 0 -i 0 -k RTR
h -t 2.020326829 -s 4 -d -1 -p AODV -e 48 -c 2 -a 0 -i 0 -k RTR
r -t 2.020486329 -s 4 -d -1 -p AODV -e 48 -c 2 -a 0 -i 0 -k RTR
r -t 2.020486397 -s 8 -d -1 -p AODV -e 48 -c 2 -a 0 -i 0 -k RTR
r -t 2.020487120 -s 1 -d -1 -p AODV -e 48 -c 2 -a 0 -i 0 -k RTR
r -t 2.021551111 -s 5 -d -1 -p AODV -e 48 -c 2 -a 0 -i 0 -k RTR
r -t 2.021551202 -s 2 -d -1 -p AODV -e 48 -c 2 -a 0 -i 0 -k RTR
r -t 2.021551281 -s 3 -d -1 -p AODV -e 48 -c 2 -a 0 -i 0 -k RTR
+ -t 2.021659598 -s 6 -d -1 -p AODV -e 48 -c 2 -a 0 -i 0 -k RTR 
- -t 2.021659598 -s 6 -d -1 -p AODV -e 48 -c 2 -a 0 -i 0 -k RTR
h -t 2.021659598 -s 6 -d -1 -p AODV -e 48 -c 2 -a 0 -i 0 -k RTR
r -t 2.022530444 -s 5 -d -1 -p AODV -e 48 -c 2 -a 0 -i 0 -k RTR
r -t 2.022530535 -s 2 -d -1 -p AODV -e 48 -c 2 -a 0 -i 0 -k RTR
r -t 2.022530614 -s 3 -d -1 -p AODV -e 48 -c 2 -a 0 -i 0 -k RTR
+ -t 2.023259054 -s 6 -d -1 -p AODV -e 48 -c 2 -a 0 -i 0 -k RTR 
- -t 2.023259054 -s 6 -d -1 -p AODV -e 48 -c 2 -a 0 -i 0 -k RTR
h -t 2.023259054 -s 6 -d -1 -p AODV -e 48 -c 2 -a 0 -i 0 -k RTR
r -t 2.023350353 -s 4 -d -1 -p AODV -e 48 -c 2 -a 0 -i 0 -k RTR
r -t 2.023350421 -s 8 -d -1 -p AODV -e 48 -c 2 -a 0 -i 0 -k RTR
+ -t 2.023350421 -s 8 -d 5 -p AODV -e 44 -c 2 -a 0 -i 0 -k RTR 
- -t 2.023350421 -s 8 -d 5 -p AODV -e 44 -c 2 -a 0 -i 0 -k RTR
h -t 2.023350421 -s 8 -d 5 -p AODV -e 44 -c 2 -a 0 -i 0 -k RTR
+ -t 2.023364743 -s 5 -d -1 -p AODV -e 48 -c 2 -a 0 -i 0 -k RTR 
- -t 2.023364743 -s 5 -d -1 -p AODV -e 48 -c 2 -a 0 -i 0 -k RTR
h -t 2.023364743 -s 5 -d -1 -p AODV -e 48 -c 2 -a 0 -i 0 -k RTR
r -t 2.024189686 -s 4 -d -1 -p AODV -e 48 -c 2 -a 0 -i 0 -k RTR
r -t 2.024189754 -s 8 -d -1 -p AODV -e 48 -c 2 -a 0 -i 0 -k RTR
+ -t 2.024189754 -s 8 -d 5 -p AODV -e 44 -c 2 -a 0 -i 0 -k RTR 
- -t 2.024189754 -s 8 -d 5 -p AODV -e 44 -c 2 -a 0 -i 0 -k RTR
h -t 2.024189754 -s 8 -d 5 -p AODV -e 44 -c 2 -a 0 -i 0 -k RTR
d -t 2.024189754 -s 8 -d 5 -p AODV -e 44 -c 2 -a 0 -i 0 -k IFQ
+ -t 2.025863168 -s 7 -d -1 -p AODV -e 48 -c 2 -a 0 -i 0 -k RTR 
- -t 2.025863168 -s 7 -d -1 -p AODV -e 48 -c 2 -a 0 -i 0 -k RTR
h -t 2.025863168 -s 7 -d -1 -p AODV -e 48 -c 2 -a 0 -i 0 -k RTR
+ -t 2.027012341 -s 5 -d -1 -p AODV -e 48 -c 2 -a 0 -i 0 -k RTR 
- -t 2.027012341 -s 5 -d -1 -p AODV -e 48 -c 2 -a 0 -i 0 -k RTR
h -t 2.027012341 -s 5 -d -1 -p AODV -e 48 -c 2 -a 0 -i 0 -k RTR
+ -t 2.027121656 -s 8 -d -1 -p AODV -e 48 -c 2 -a 0 -i 0 -k RTR 
- -t 2.027121656 -s 8 -d -1 -p AODV -e 48 -c 2 -a 0 -i 0 -k RTR
h -t 2.027121656 -s 8 -d -1 -p AODV -e 48 -c 2 -a 0 -i 0 -k RTR
r -t 2.028157307 -s 5 -d -1 -p AODV -e 48 -c 2 -a 0 -i 0 -k RTR
r -t 2.028957215 -s 4 -d -1 -p AODV -e 48 -c 2 -a 0 -i 0 -k RTR
r -t 2.028957284 -s 8 -d -1 -p AODV -e 48 -c 2 -a 0 -i 0 -k RTR
+ -t 2.029117256 -s 8 -d -1 -p AODV -e 48 -c 2 -a 0 -i 0 -k RTR 
- -t 2.029117256 -s 8 -d -1 -p AODV -e 48 -c 2 -a 0 -i 0 -k RTR
h -t 2.029117256 -s 8 -d -1 -p AODV -e 48 -c 2 -a 0 -i 0 -k RTR
+ -t 2.031778503 -s 5 -d 4 -p AODV -e 44 -c 2 -a 0 -i 0 -k RTR 
- -t 2.031778503 -s 5 -d 4 -p AODV -e 44 -c 2 -a 0 -i 0 -k RTR
h -t 2.031778503 -s 5 -d 4 -p AODV -e 44 -c 2 -a 0 -i 0 -k RTR
r -t 2.033748457 -s 5 -d -1 -p AODV -e 48 -c 2 -a 0 -i 0 -k RTR
r -t 2.036350226 -s 7 -d -1 -p AODV -e 48 -c 2 -a 0 -i 0 -k RTR
+ -t 2.036350226 -s 7 -d 6 -p AODV -e 44 -c 2 -a 0 -i 0 -k RTR 
- -t 2.036350226 -s 7 -d 6 -p AODV -e 44 -c 2 -a 0 -i 0 -k RTR
h -t 2.036350226 -s 7 -d 6 -p AODV -e 44 -c 2 -a 0 -i 0 -k RTR
r -t 2.036350231 -s 2 -d -1 -p AODV -e 48 -c 2 -a 0 -i 0 -k RTR
r -t 2.037050168 -s 6 -d -1 -p AODV -e 48 -c 2 -a 0 -i 0 -k RTR
r -t 2.038250109 -s 7 -d -1 -p AODV -e 48 -c 2 -a 0 -i 0 -k RTR
r -t 2.038250114 -s 2 -d -1 -p AODV -e 48 -c 2 -a 0 -i 0 -k RTR
+ -t 2.039555267 -s 6 -d 2 -p AODV -e 44 -c 2 -a 0 -i 0 -k RTR 
- -t 2.039555267 -s 6 -d 2 -p AODV -e 44 -c 2 -a 0 -i 0 -k RTR
h -t 2.039555267 -s 6 -d 2 -p AODV -e 44 -c 2 -a 0 -i 0 -k RTR
+ -t 2.044620904 -s 7 -d -1 -p AODV -e 48 -c 2 -a 0 -i 0 -k RTR 
- -t 2.044620904 -s 7 -d -1 -p AODV -e 48 -c 2 -a 0 -i 0 -k RTR
h -t 2.044620904 -s 7 -d -1 -p AODV -e 48 -c 2 -a 0 -i 0 -k RTR
+ -t 2.047495121 -s 2 -d 4 -p AODV -e 44 -c 2 -a 0 -i 0 -k RTR 
- -t 2.047495121 -s 2 -d 4 -p AODV -e 44 -c 2 -a 0 -i 0 -k RTR
h -t 2.047495121 -s 2 -d 4 -p AODV -e 44 -c 2 -a 0 -i 0 -k RTR
+ -t 2.051496800 -s 4 -d 2 -p AODV -e 44 -c 2 -a 0 -i 0 -k RTR 
- -t 2.051496800 -s 4 -d 2 -p AODV -e 44 -c 2 -a 0 -i 0 -k RTR
h -t 2.051496800 -s 4 -d 2 -p AODV -e 44 -c 2 -a 0 -i 0 -k RTR
+ -t 2.053018800 -s 2 -d 0 -p AODV -e 44 -c 2 -a 0 -i 0 -k RTR 
- -t 2.053018800 -s 2 -d 0 -p AODV -e 44 -c 2 -a 0 -i 0 -k RTR
h -t 2.053018800 -s 2 -d 0 -p AODV -e 44 -c 2 -a 0 -i 0 -k RTR
+ -t 2.054720800 -s 4 -d 3 -p AODV -e 44 -c 2 -a 0 -i 0 -k RTR 
- -t 2.054720800 -s 4 -d 3 -p AODV -e 44 -c 2 -a 0 -i 0 -k RTR
h -t 2.054720800 -s 4 -d 3 -p AODV -e 44 -c 2 -a 0 -i 0 -k RTR
+ -t 2.059991600 -s 3 -d 4 -p tcp -e 40 -c 2 -a 0 -i 2 -k RTR 
- -t 2.059991600 -s 3 -d 4 -p tcp -e 40 -c 2 -a 0 -i 2 -k RTR
h -t 2.059991600 -s 3 -d 4 -p tcp -e 40 -c 2 -a 0 -i 2 -k RTR
+ -t 2.061492503 -s 4 -d 2 -p tcp -e 40 -c 2 -a 0 -i 2 -k RTR 
- -t 2.061492503 -s 4 -d 2 -p tcp -e 40 -c 2 -a 0 -i 2 -k RTR
h -t 2.061492503 -s 4 -d 2 -p tcp -e 40 -c 2 -a 0 -i 2 -k RTR
+ -t 2.063413170 -s 2 -d 6 -p tcp -e 40 -c 2 -a 0 -i 2 -k RTR 
- -t 2.063413170 -s 2 -d 6 -p tcp -e 40 -c 2 -a 0 -i 2 -k RTR
h -t 2.063413170 -s 2 -d 6 -p tcp -e 40 -c 2 -a 0 -i 2 -k RTR
+ -t 2.066938446 -s 6 -d 7 -p tcp -e 40 -c 2 -a 0 -i 2 -k RTR 
- -t 2.066938446 -s 6 -d 7 -p tcp -e 40 -c 2 -a 0 -i 2 -k RTR
h -t 2.066938446 -s 6 -d 7 -p tcp -e 40 -c 2 -a 0 -i 2 -k RTR
+ -t 2.068581295 -s 0 -d 2 -p tcp -e 40 -c 2 -a 0 -i 1 -k RTR 
- -t 2.068581295 -s 0 -d 2 -p tcp -e 40 -c 2 -a 0 -i 1 -k RTR
h -t 2.068581295 -s 0 -d 2 -p tcp -e 40 -c 2 -a 0 -i 1 -k RTR
+ -t 2.070342198 -s 2 -d 4 -p tcp -e 40 -c 2 -a 0 -i 1 -k RTR 
- -t 2.070342198 -s 2 -d 4 -p tcp -e 40 -c 2 -a 0 -i 1 -k RTR
h -t 2.070342198 -s 2 -d 4 -p tcp -e 40 -c 2 -a 0 -i 1 -k RTR
+ -t 2.071882864 -s 4 -d 5 -p tcp -e 40 -c 2 -a 0 -i 1 -k RTR 
- -t 2.071882864 -s 4 -d 5 -p tcp -e 40 -c 2 -a 0 -i 1 -k RTR
h -t 2.071882864 -s 4 -d 5 -p tcp -e 40 -c 2 -a 0 -i 1 -k RTR
+ -t 2.073943257 -s 5 -d 8 -p tcp -e 40 -c 2 -a 0 -i 1 -k RTR 
- -t 2.073943257 -s 5 -d 8 -p tcp -e 40 -c 2 -a 0 -i 1 -k RTR
h -t 2.073943257 -s 5 -d 8 -p tcp -e 40 -c 2 -a 0 -i 1 -k RTR
r -t 2.075443855 -s 8 -d 8 -p tcp -e 40 -c 2 -a 0 -i 1 -k AGT
+ -t 2.075443855 -s 8 -d -1 -p ack -e 40 -c 2 -a 0 -i 4 -k AGT 
- -t 2.075443855 -s 8 -d -1 -p ack -e 40 -c 2 -a 0 -i 4 -k AGT
h -t 2.075443855 -s 8 -d -1 -p ack -e 40 -c 2 -a 0 -i 4 -k AGT
+ -t 2.075443855 -s 8 -d 5 -p ack -e 40 -c 2 -a 0 -i 4 -k RTR 
- -t 2.075443855 -s 8 -d 5 -p ack -e 40 -c 2 -a 0 -i 4 -k RTR
h -t 2.075443855 -s 8 -d 5 -p ack -e 40 -c 2 -a 0 -i 4 -k RTR
+ -t 2.077064453 -s 5 -d 4 -p ack -e 40 -c 2 -a 0 -i 4 -k RTR 
- -t 2.077064453 -s 5 -d 4 -p ack -e 40 -c 2 -a 0 -i 4 -k RTR
h -t 2.077064453 -s 5 -d 4 -p ack -e 40 -c 2 -a 0 -i 4 -k RTR
+ -t 2.078804846 -s 4 -d 2 -p ack -e 40 -c 2 -a 0 -i 4 -k RTR 
- -t 2.078804846 -s 4 -d 2 -p ack -e 40 -c 2 -a 0 -i 4 -k RTR
h -t 2.078804846 -s 4 -d 2 -p ack -e 40 -c 2 -a 0 -i 4 -k RTR
+ -t 2.080645513 -s 2 -d 0 -p ack -e 40 -c 2 -a 0 -i 4 -k RTR 
- -t 2.080645513 -s 2 -d 0 -p ack -e 40 -c 2 -a 0 -i 4 -k RTR
h -t 2.080645513 -s 2 -d 0 -p ack -e 40 -c 2 -a 0 -i 4 -k RTR
r -t 2.082346416 -s 0 -d 0 -p ack -e 40 -c 2 -a 0 -i 4 -k AGT
+ -t 2.082346416 -s 0 -d -1 -p tcp -e 14376 -c 2 -a 0 -i 5 -k AGT 
- -t 2.082346416 -s 0 -d -1 -p tcp -e 14376 -c 2 -a 0 -i 5 -k AGT
h -t 2.082346416 -s 0 -d -1 -p tcp -e 14376 -c 2 -a 0 -i 5 -k AGT
+ -t 2.082346416 -s 0 -d -1 -p tcp -e 14376 -c 2 -a 0 -i 6 -k AGT 
- -t 2.082346416 -s 0 -d -1 -p tcp -e 14376 -c 2 -a 0 -i 6 -k AGT
h -t 2.082346416 -s 0 -d -1 -p tcp -e 14376 -c 2 -a 0 -i 6 -k AGT
+ -t 2.082346416 -s 0 -d 2 -p tcp -e 14376 -c 2 -a 0 -i 5 -k RTR 
- -t 2.082346416 -s 0 -d 2 -p tcp -e 14376 -c 2 -a 0 -i 5 -k RTR
h -t 2.082346416 -s 0 -d 2 -p tcp -e 14376 -c 2 -a 0 -i 5 -k RTR
+ -t 2.082346416 -s 0 -d 2 -p tcp -e 14376 -c 2 -a 0 -i 6 -k RTR 
- -t 2.082346416 -s 0 -d 2 -p tcp -e 14376 -c 2 -a 0 -i 6 -k RTR
h -t 2.082346416 -s 0 -d 2 -p tcp -e 14376 -c 2 -a 0 -i 6 -k RTR
r -t 2.084252144 -s 7 -d 7 -p tcp -e 40 -c 2 -a 0 -i 2 -k AGT
+ -t 2.084252144 -s 7 -d -1 -p ack -e 40 -c 2 -a 0 -i 7 -k AGT 
- -t 2.084252144 -s 7 -d -1 -p ack -e 40 -c 2 -a 0 -i 7 -k AGT
h -t 2.084252144 -s 7 -d -1 -p ack -e 40 -c 2 -a 0 -i 7 -k AGT
+ -t 2.084252144 -s 7 -d 6 -p ack -e 40 -c 2 -a 0 -i 7 -k RTR 
- -t 2.084252144 -s 7 -d 6 -p ack -e 40 -c 2 -a 0 -i 7 -k RTR
h -t 2.084252144 -s 7 -d 6 -p ack -e 40 -c 2 -a 0 -i 7 -k RTR
+ -t 2.085892636 -s 6 -d 2 -p ack -e 40 -c 2 -a 0 -i 7 -k RTR 
- -t 2.085892636 -s 6 -d 2 -p ack -e 40 -c 2 -a 0 -i 7 -k RTR
h -t 2.085892636 -s 6 -d 2 -p ack -e 40 -c 2 -a 0 -i 7 -k RTR
+ -t 2.087733141 -s 2 -d 4 -p ack -e 40 -c 2 -a 0 -i 7 -k RTR 
- -t 2.087733141 -s 2 -d 4 -p ack -e 40 -c 2 -a 0 -i 7 -k RTR
h -t 2.087733141 -s 2 -d 4 -p ack -e 40 -c 2 -a 0 -i 7 -k RTR
+ -t 2.167204668 -s 4 -d 3 -p ack -e 40 -c 2 -a 0 -i 7 -k RTR 
- -t 2.167204668 -s 4 -d 3 -p ack -e 40 -c 2 -a 0 -i 7 -k RTR
h -t 2.167204668 -s 4 -d 3 -p ack -e 40 -c 2 -a 0 -i 7 -k RTR
r -t 2.168885571 -s 3 -d 3 -p ack -e 40 -c 2 -a 0 -i 7 -k AGT
+ -t 2.168885571 -s 3 -d -1 -p tcp -e 14376 -c 2 -a 0 -i 8 -k AGT 
- -t 2.168885571 -s 3 -d -1 -p tcp -e 14376 -c 2 -a 0 -i 8 -k AGT
h -t 2.168885571 -s 3 -d -1 -p tcp -e 14376 -c 2 -a 0 -i 8 -k AGT
+ -t 2.168885571 -s 3 -d -1 -p tcp -e 14376 -c 2 -a 0 -i 9 -k AGT 
- -t 2.168885571 -s 3 -d -1 -p tcp -e 14376 -c 2 -a 0 -i 9 -k AGT
h -t 2.168885571 -s 3 -d -1 -p tcp -e 14376 -c 2 -a 0 -i 9 -k AGT
+ -t 2.168885571 -s 3 -d 4 -p tcp -e 14376 -c 2 -a 0 -i 8 -k RTR 
- -t 2.168885571 -s 3 -d 4 -p tcp -e 14376 -c 2 -a 0 -i 8 -k RTR
h -t 2.168885571 -s 3 -d 4 -p tcp -e 14376 -c 2 -a 0 -i 8 -k RTR
+ -t 2.168885571 -s 3 -d 4 -p tcp -e 14376 -c 2 -a 0 -i 9 -k RTR 
- -t 2.168885571 -s 3 -d 4 -p tcp -e 14376 -c 2 -a 0 -i 9 -k RTR
h -t 2.168885571 -s 3 -d 4 -p tcp -e 14376 -c 2 -a 0 -i 9 -k RTR
E -t 2.322346 -o TCP -e TIMEOUT -s 0.1 -d 8.0
E -t 2.322346 -o TCP -e SLOW_START -s 0.1 -d 8.0
+ -t 2.322346416 -s 0 -d -1 -p tcp -e 14376 -c 2 -a 0 -i 10 -k AGT 
- -t 2.322346416 -s 0 -d -1 -p tcp -e 14376 -c 2 -a 0 -i 10 -k AGT
h -t 2.322346416 -s 0 -d -1 -p tcp -e 14376 -c 2 -a 0 -i 10 -k AGT
+ -t 2.322346416 -s 0 -d 2 -p tcp -e 14376 -c 2 -a 0 -i 10 -k RTR 
- -t 2.322346416 -s 0 -d 2 -p tcp -e 14376 -c 2 -a 0 -i 10 -k RTR
h -t 2.322346416 -s 0 -d 2 -p tcp -e 14376 -c 2 -a 0 -i 10 -k RTR
d -t 2.641898849 -s 0 -d 2 -p tcp -e 14376 -c 2 -a 0 -i 5 -k RTR
d -t 2.641898849 -s 0 -d 2 -p tcp -e 14376 -c 2 -a 0 -i 6 -k RTR
d -t 2.641898849 -s 0 -d 2 -p tcp -e 14376 -c 2 -a 0 -i 10 -k RTR
+ -t 2.641898849 -s 0 -d 0 -p AODV -e 32 -c 2 -a 0 -i 0 -k RTR 
- -t 2.641898849 -s 0 -d 0 -p AODV -e 32 -c 2 -a 0 -i 0 -k RTR
h -t 2.641898849 -s 0 -d 0 -p AODV -e 32 -c 2 -a 0 -i 0 -k RTR
r -t 2.642583594 -s 2 -d 0 -p AODV -e 32 -c 2 -a 0 -i 0 -k RTR
r -t 2.642583635 -s 1 -d 0 -p AODV -e 32 -c 2 -a 0 -i 0 -k RTR
E -t 2.648886 -o TCP -e TIMEOUT -s 3.0 -d 7.1
E -t 2.648886 -o TCP -e SLOW_START -s 3.0 -d 7.1
+ -t 2.648885571 -s 3 -d -1 -p tcp -e 14376 -c 2 -a 0 -i 11 -k AGT 
- -t 2.648885571 -s 3 -d -1 -p tcp -e 14376 -c 2 -a 0 -i 11 -k AGT
h -t 2.648885571 -s 3 -d -1 -p tcp -e 14376 -c 2 -a 0 -i 11 -k AGT
+ -t 2.648885571 -s 3 -d 4 -p tcp -e 14376 -c 2 -a 0 -i 11 -k RTR 
- -t 2.648885571 -s 3 -d 4 -p tcp -e 14376 -c 2 -a 0 -i 11 -k RTR
h -t 2.648885571 -s 3 -d 4 -p tcp -e 14376 -c 2 -a 0 -i 11 -k RTR
d -t 2.721586006 -s 3 -d 4 -p tcp -e 14376 -c 2 -a 0 -i 8 -k RTR
d -t 2.721586006 -s 3 -d 4 -p tcp -e 14376 -c 2 -a 0 -i 9 -k RTR
d -t 2.721586006 -s 3 -d 4 -p tcp -e 14376 -c 2 -a 0 -i 11 -k RTR
+ -t 2.721586006 -s 3 -d 0 -p AODV -e 32 -c 2 -a 0 -i 0 -k RTR 
- -t 2.721586006 -s 3 -d 0 -p AODV -e 32 -c 2 -a 0 -i 0 -k RTR
h -t 2.721586006 -s 3 -d 0 -p AODV -e 32 -c 2 -a 0 -i 0 -k RTR
r -t 2.722310751 -s 4 -d 0 -p AODV -e 32 -c 2 -a 0 -i 0 -k RTR
r -t 2.722310792 -s 1 -d 0 -p AODV -e 32 -c 2 -a 0 -i 0 -k RTR
E -t 2.802346 -o TCP -e TIMEOUT -s 0.1 -d 8.0
E -t 2.802346 -o TCP -e SLOW_START -s 0.1 -d 8.0
+ -t 2.802346416 -s 0 -d -1 -p tcp -e 14376 -c 2 -a 0 -i 12 -k AGT 
- -t 2.802346416 -s 0 -d -1 -p tcp -e 14376 -c 2 -a 0 -i 12 -k AGT
h -t 2.802346416 -s 0 -d -1 -p tcp -e 14376 -c 2 -a 0 -i 12 -k AGT
+ -t 2.802346416 -s 0 -d -1 -p AODV -e 48 -c 2 -a 0 -i 0 -k RTR 
- -t 2.802346416 -s 0 -d -1 -p AODV -e 48 -c 2 -a 0 -i 0 -k RTR
h -t 2.802346416 -s 0 -d -1 -p AODV -e 48 -c 2 -a 0 -i 0 -k RTR
r -t 2.803076494 -s 2 -d -1 -p AODV -e 48 -c 2 -a 0 -i 0 -k RTR
r -t 2.803076535 -s 1 -d -1 -p AODV -e 48 -c 2 -a 0 -i 0 -k RTR
+ -t 2.807493448 -s 2 -d -1 -p AODV -e 48 -c 2 -a 0 -i 0 -k RTR 
- -t 2.807493448 -s 2 -d -1 -p AODV -e 48 -c 2 -a 0 -i 0 -k RTR
h -t 2.807493448 -s 2 -d -1 -p AODV -e 48 -c 2 -a 0 -i 0 -k RTR
r -t 2.808303394 -s 6 -d -1 -p AODV -e 48 -c 2 -a 0 -i 0 -k RTR
r -t 2.808303448 -s 4 -d -1 -p AODV -e 48 -c 2 -a 0 -i 0 -k RTR
r -t 2.808303526 -s 0 -d -1 -p AODV -e 48 -c 2 -a 0 -i 0 -k RTR
+ -t 2.808727143 -s 4 -d -1 -p AODV -e 48 -c 2 -a 0 -i 0 -k RTR 
- -t 2.808727143 -s 4 -d -1 -p AODV -e 48 -c 2 -a 0 -i 0 -k RTR
h -t 2.808727143 -s 4 -d -1 -p AODV -e 48 -c 2 -a 0 -i 0 -k RTR
r -t 2.809737052 -s 5 -d -1 -p AODV -e 48 -c 2 -a 0 -i 0 -k RTR
r -t 2.809737143 -s 2 -d -1 -p AODV -e 48 -c 2 -a 0 -i 0 -k RTR
r -t 2.809737222 -s 3 -d -1 -p AODV -e 48 -c 2 -a 0 -i 0 -k RTR
+ -t 2.810548889 -s 1 -d -1 -p AODV -e 48 -c 2 -a 0 -i 0 -k RTR 
- -t 2.810548889 -s 1 -d -1 -p AODV -e 48 -c 2 -a 0 -i 0 -k RTR
h -t 2.810548889 -s 1 -d -1 -p AODV -e 48 -c 2 -a 0 -i 0 -k RTR
r -t 2.811439008 -s 0 -d -1 -p AODV -e 48 -c 2 -a 0 -i 0 -k RTR
r -t 2.811439008 -s 3 -d -1 -p AODV -e 48 -c 2 -a 0 -i 0 -k RTR
+ -t 2.812622494 -s 5 -d -1 -p AODV -e 48 -c 2 -a 0 -i 0 -k RTR 
- -t 2.812622494 -s 5 -d -1 -p AODV -e 48 -c 2 -a 0 -i 0 -k RTR
h -t 2.812622494 -s 5 -d -1 -p AODV -e 48 -c 2 -a 0 -i 0 -k RTR
r -t 2.813652403 -s 4 -d -1 -p AODV -e 48 -c 2 -a 0 -i 0 -k RTR
r -t 2.813652471 -s 8 -d -1 -p AODV -e 48 -c 2 -a 0 -i 0 -k RTR
+ -t 2.813652471 -s 8 -d 5 -p AODV -e 44 -c 2 -a 0 -i 0 -k RTR 
- -t 2.813652471 -s 8 -d 5 -p AODV -e 44 -c 2 -a 0 -i 0 -k RTR
h -t 2.813652471 -s 8 -d 5 -p AODV -e 44 -c 2 -a 0 -i 0 -k RTR
+ -t 2.813702946 -s 3 -d -1 -p AODV -e 48 -c 2 -a 0 -i 0 -k RTR 
- -t 2.813702946 -s 3 -d -1 -p AODV -e 48 -c 2 -a 0 -i 0 -k RTR
h -t 2.813702946 -s 3 -d -1 -p AODV -e 48 -c 2 -a 0 -i 0 -k RTR
+ -t 2.815367736 -s 5 -d 4 -p AODV -e 44 -c 2 -a 0 -i 0 -k RTR 
- -t 2.815367736 -s 5 -d 4 -p AODV -e 44 -c 2 -a 0 -i 0 -k RTR
h -t 2.815367736 -s 5 -d 4 -p AODV -e 44 -c 2 -a 0 -i 0 -k RTR
+ -t 2.816989462 -s 4 -d 2 -p AODV -e 44 -c 2 -a 0 -i 0 -k RTR 
- -t 2.816989462 -s 4 -d 2 -p AODV -e 44 -c 2 -a 0 -i 0 -k RTR
h -t 2.816989462 -s 4 -d 2 -p AODV -e 44 -c 2 -a 0 -i 0 -k RTR
+ -t 2.817048495 -s 6 -d -1 -p AODV -e 48 -c 2 -a 0 -i 0 -k RTR 
- -t 2.817048495 -s 6 -d -1 -p AODV -e 48 -c 2 -a 0 -i 0 -k RTR
h -t 2.817048495 -s 6 -d -1 -p AODV -e 48 -c 2 -a 0 -i 0 -k RTR
r -t 2.818354220 -s 4 -d -1 -p AODV -e 48 -c 2 -a 0 -i 0 -k RTR
r -t 2.818354261 -s 1 -d -1 -p AODV -e 48 -c 2 -a 0 -i 0 -k RTR
+ -t 2.819639554 -s 2 -d 0 -p AODV -e 44 -c 2 -a 0 -i 0 -k RTR 
- -t 2.819639554 -s 2 -d 0 -p AODV -e 44 -c 2 -a 0 -i 0 -k RTR
h -t 2.819639554 -s 2 -d 0 -p AODV -e 44 -c 2 -a 0 -i 0 -k RTR
+ -t 2.821401790 -s 0 -d 2 -p tcp -e 14376 -c 2 -a 0 -i 12 -k RTR 
- -t 2.821401790 -s 0 -d 2 -p tcp -e 14376 -c 2 -a 0 -i 12 -k RTR
h -t 2.821401790 -s 0 -d 2 -p tcp -e 14376 -c 2 -a 0 -i 12 -k RTR
r -t 2.901065793 -s 7 -d -1 -p AODV -e 48 -c 2 -a 0 -i 0 -k RTR
r -t 2.901065797 -s 2 -d -1 -p AODV -e 48 -c 2 -a 0 -i 0 -k RTR
+ -t 2.908874700 -s 7 -d -1 -p AODV -e 48 -c 2 -a 0 -i 0 -k RTR 
- -t 2.908874700 -s 7 -d -1 -p AODV -e 48 -c 2 -a 0 -i 0 -k RTR
h -t 2.908874700 -s 7 -d -1 -p AODV -e 48 -c 2 -a 0 -i 0 -k RTR
r -t 2.981578354 -s 6 -d -1 -p AODV -e 48 -c 2 -a 0 -i 0 -k RTR
d -t 3.142384227 -s 0 -d 2 -p tcp -e 14376 -c 2 -a 0 -i 12 -k RTR
+ -t 3.142384227 -s 0 -d 0 -p AODV -e 32 -c 2 -a 0 -i 0 -k RTR 
- -t 3.142384227 -s 0 -d 0 -p AODV -e 32 -c 2 -a 0 -i 0 -k RTR
h -t 3.142384227 -s 0 -d 0 -p AODV -e 32 -c 2 -a 0 -i 0 -k RTR
r -t 3.143208973 -s 2 -d 0 -p AODV -e 32 -c 2 -a 0 -i 0 -k RTR
r -t 3.143209013 -s 1 -d 0 -p AODV -e 32 -c 2 -a 0 -i 0 -k RTR
E -t 3.608886 -o TCP -e TIMEOUT -s 3.0 -d 7.1
E -t 3.608886 -o TCP -e SLOW_START -s 3.0 -d 7.1
+ -t 3.608885571 -s 3 -d -1 -p tcp -e 14376 -c 2 -a 0 -i 13 -k AGT 
- -t 3.608885571 -s 3 -d -1 -p tcp -e 14376 -c 2 -a 0 -i 13 -k AGT
h -t 3.608885571 -s 3 -d -1 -p tcp -e 14376 -c 2 -a 0 -i 13 -k AGT
+ -t 3.608885571 -s 3 -d -1 -p AODV -e 48 -c 2 -a 0 -i 0 -k RTR 
- -t 3.608885571 -s 3 -d -1 -p AODV -e 48 -c 2 -a 0 -i 0 -k RTR
h -t 3.608885571 -s 3 -d -1 -p AODV -e 48 -c 2 -a 0 -i 0 -k RTR
r -t 3.609695650 -s 4 -d -1 -p AODV -e 48 -c 2 -a 0 -i 0 -k RTR
r -t 3.609695691 -s 1 -d -1 -p AODV -e 48 -c 2 -a 0 -i 0 -k RTR
+ -t 3.613236761 -s 4 -d -1 -p AODV -e 48 -c 2 -a 0 -i 0 -k RTR 
- -t 3.613236761 -s 4 -d -1 -p AODV -e 48 -c 2 -a 0 -i 0 -k RTR
h -t 3.613236761 -s 4 -d -1 -p AODV -e 48 -c 2 -a 0 -i 0 -k RTR
r -t 3.613966670 -s 5 -d -1 -p AODV -e 48 -c 2 -a 0 -i 0 -k RTR
r -t 3.613966761 -s 2 -d -1 -p AODV -e 48 -c 2 -a 0 -i 0 -k RTR
r -t 3.613966840 -s 3 -d -1 -p AODV -e 48 -c 2 -a 0 -i 0 -k RTR
+ -t 3.614500781 -s 2 -d -1 -p AODV -e 48 -c 2 -a 0 -i 0 -k RTR 
- -t 3.614500781 -s 2 -d -1 -p AODV -e 48 -c 2 -a 0 -i 0 -k RTR
h -t 3.614500781 -s 2 -d -1 -p AODV -e 48 -c 2 -a 0 -i 0 -k RTR
r -t 3.615310728 -s 6 -d -1 -p AODV -e 48 -c 2 -a 0 -i 0 -k RTR
r -t 3.615310781 -s 4 -d -1 -p AODV -e 48 -c 2 -a 0 -i 0 -k RTR
r -t 3.615310860 -s 0 -d -1 -p AODV -e 48 -c 2 -a 0 -i 0 -k RTR
+ -t 3.616677653 -s 5 -d -1 -p AODV -e 48 -c 2 -a 0 -i 0 -k RTR 
- -t 3.616677653 -s 5 -d -1 -p AODV -e 48 -c 2 -a 0 -i 0 -k RTR
h -t 3.616677653 -s 5 -d -1 -p AODV -e 48 -c 2 -a 0 -i 0 -k RTR
r -t 3.617987561 -s 4 -d -1 -p AODV -e 48 -c 2 -a 0 -i 0 -k RTR
r -t 3.617987630 -s 8 -d -1 -p AODV -e 48 -c 2 -a 0 -i 0 -k RTR
+ -t 3.618587762 -s 8 -d -1 -p AODV -e 48 -c 2 -a 0 -i 0 -k RTR 
- -t 3.618587762 -s 8 -d -1 -p AODV -e 48 -c 2 -a 0 -i 0 -k RTR
h -t 3.618587762 -s 8 -d -1 -p AODV -e 48 -c 2 -a 0 -i 0 -k RTR
+ -t 3.618686811 -s 1 -d -1 -p AODV -e 48 -c 2 -a 0 -i 0 -k RTR 
- -t 3.618686811 -s 1 -d -1 -p AODV -e 48 -c 2 -a 0 -i 0 -k RTR
h -t 3.618686811 -s 1 -d -1 -p AODV -e 48 -c 2 -a 0 -i 0 -k RTR
r -t 3.619377739 -s 5 -d -1 -p AODV -e 48 -c 2 -a 0 -i 0 -k RTR
r -t 3.619556931 -s 0 -d -1 -p AODV -e 48 -c 2 -a 0 -i 0 -k RTR
+ -t 3.621306484 -s 6 -d -1 -p AODV -e 48 -c 2 -a 0 -i 0 -k RTR 
- -t 3.621306484 -s 6 -d -1 -p AODV -e 48 -c 2 -a 0 -i 0 -k RTR
h -t 3.621306484 -s 6 -d -1 -p AODV -e 48 -c 2 -a 0 -i 0 -k RTR
r -t 3.622056426 -s 7 -d -1 -p AODV -e 48 -c 2 -a 0 -i 0 -k RTR
+ -t 3.622056426 -s 7 -d 6 -p AODV -e 44 -c 2 -a 0 -i 0 -k RTR 
- -t 3.622056426 -s 7 -d 6 -p AODV -e 44 -c 2 -a 0 -i 0 -k RTR
h -t 3.622056426 -s 7 -d 6 -p AODV -e 44 -c 2 -a 0 -i 0 -k RTR
r -t 3.622056431 -s 2 -d -1 -p AODV -e 48 -c 2 -a 0 -i 0 -k RTR
+ -t 3.623174993 -s 0 -d -1 -p AODV -e 48 -c 2 -a 0 -i 0 -k RTR 
- -t 3.623174993 -s 0 -d -1 -p AODV -e 48 -c 2 -a 0 -i 0 -k RTR
h -t 3.623174993 -s 0 -d -1 -p AODV -e 48 -c 2 -a 0 -i 0 -k RTR
+ -t 3.623391584 -s 6 -d 2 -p AODV -e 44 -c 2 -a 0 -i 0 -k RTR 
- -t 3.623391584 -s 6 -d 2 -p AODV -e 44 -c 2 -a 0 -i 0 -k RTR
h -t 3.623391584 -s 6 -d 2 -p AODV -e 44 -c 2 -a 0 -i 0 -k RTR
+ -t 3.625293423 -s 2 -d 4 -p AODV -e 44 -c 2 -a 0 -i 0 -k RTR 
- -t 3.625293423 -s 2 -d 4 -p AODV -e 44 -c 2 -a 0 -i 0 -k RTR
h -t 3.625293423 -s 2 -d 4 -p AODV -e 44 -c 2 -a 0 -i 0 -k RTR
+ -t 3.626955423 -s 4 -d 3 -p AODV -e 44 -c 2 -a 0 -i 0 -k RTR 
- -t 3.626955423 -s 4 -d 3 -p AODV -e 44 -c 2 -a 0 -i 0 -k RTR
h -t 3.626955423 -s 4 -d 3 -p AODV -e 44 -c 2 -a 0 -i 0 -k RTR
+ -t 3.629017659 -s 3 -d 4 -p tcp -e 14376 -c 2 -a 0 -i 13 -k RTR 
- -t 3.629017659 -s 3 -d 4 -p tcp -e 14376 -c 2 -a 0 -i 13 -k RTR
h -t 3.629017659 -s 3 -d 4 -p tcp -e 14376 -c 2 -a 0 -i 13 -k RTR
r -t 3.708561895 -s 2 -d -1 -p AODV -e 48 -c 2 -a 0 -i 0 -k RTR
r -t 3.708561936 -s 1 -d -1 -p AODV -e 48 -c 2 -a 0 -i 0 -k RTR
E -t 3.762346 -o TCP -e TIMEOUT -s 0.1 -d 8.0
E -t 3.762346 -o TCP -e SLOW_START -s 0.1 -d 8.0
+ -t 3.762346416 -s 0 -d -1 -p tcp -e 14376 -c 2 -a 0 -i 14 -k AGT 
- -t 3.762346416 -s 0 -d -1 -p tcp -e 14376 -c 2 -a 0 -i 14 -k AGT
h -t 3.762346416 -s 0 -d -1 -p tcp -e 14376 -c 2 -a 0 -i 14 -k AGT
+ -t 3.762346416 -s 0 -d -1 -p AODV -e 48 -c 2 -a 0 -i 0 -k RTR 
- -t 3.762346416 -s 0 -d -1 -p AODV -e 48 -c 2 -a 0 -i 0 -k RTR
h -t 3.762346416 -s 0 -d -1 -p AODV -e 48 -c 2 -a 0 -i 0 -k RTR
d -t 3.943889955 -s 3 -d 4 -p tcp -e 14376 -c 2 -a 0 -i 13 -k RTR